/*--------------------------------*- C++ -*----------------------------------*\
  =========                 |
  \\      /  F ield         | OpenFOAM: The Open Source CFD Toolbox
   \\    /   O peration     | Website:  https://openfoam.org
    \\  /    A nd           | Version:  8
     \\/     M anipulation  |
\*---------------------------------------------------------------------------*/
FoamFile
{
    version     2.0;
    format      ascii;
    class       volScalarField;
    location    "1000";
    object      alphat;
}
// * * * * * * * * * * * * * * * * * * * * * * * * * * * * * * * * * * * * * //

dimensions      [1 -1 -1 0 0 0 0];

internalField   nonuniform List<scalar> 
60977
(
0.0009776602
0.0009910703
0.001294097
0.001036969
0.0009768447
0.001360105
0.0009746747
0.001466369
0.001424394
0.001094574
0.0009636427
0.001283542
0.0009640053
0.001579985
0.002421049
0.001041278
0.001573188
0.001630465
0.001536375
0.001139404
0.001211685
0.0009685962
0.001457002
0.002162165
0.0009755992
0.001712666
0.003204986
0.003331355
0.001052918
0.001647794
0.001769992
0.001767003
0.001636098
0.001184484
0.001333119
0.001479653
0.0009898358
0.001570424
0.002826831
0.002908882
0.0009890899
0.001793915
0.003680101
0.004457115
0.003445606
0.001062643
0.001699612
0.001866471
0.001924883
0.001880283
0.001735717
0.001242132
0.001417158
0.001645071
0.001641057
0.00102575
0.001639651
0.003279864
0.004037861
0.003556637
0.000979275
0.001842075
0.003975398
0.005139757
0.004763481
0.003113425
0.001125329
0.001734438
0.001933568
0.002033193
0.002045911
0.002002197
0.001855566
0.001312461
0.001469846
0.001773701
0.001862819
0.00199425
0.0003198203
0.001015043
0.0002550918
0.0004173835
0.0003510816
0.001678979
0.00354923
0.004807064
0.004948899
0.003256267
0.001066723
0.001864619
0.004142346
0.005611049
0.005598448
0.004344112
0.00289568
0.001217526
0.001756895
0.001980034
0.002108653
0.002156461
0.002169062
0.002136184
0.00202255
0.001392846
0.001501382
0.001859579
0.002049491
0.002547132
0.0003432879
0.001997651
0.0003483372
0.0005120326
0.000516035
0.001280846
0.001166308
0.0004337548
0.0005986181
0.001698139
0.003693647
0.00528168
0.005869108
0.004473445
0.002315288
0.00121176
0.001868575
0.004208318
0.00593788
0.00624075
0.005289275
0.004100396
0.003123362
0.001285424
0.00177137
0.002012508
0.002162415
0.0022326
0.002274102
0.002305498
0.002308857
0.002242954
0.001494091
0.001514262
0.001911178
0.002181304
0.002978523
0.0004052299
0.002664755
0.0004090746
0.0006265233
0.0006352124
0.001313197
0.002001402
0.0006921516
0.0007061456
0.001711047
0.001388907
0.001281308
0.0006453863
0.002785985
0.001702107
0.003749559
0.005552952
0.006499563
0.005481515
0.003230013
0.002614252
0.001279428
0.001860791
0.004199416
0.006143669
0.006747782
0.006102835
0.005047421
0.004288784
0.003552319
0.00135671
0.00178258
0.002037029
0.00220268
0.002287766
0.002344268
0.002410544
0.002468229
0.002523964
0.002530325
0.001627937
0.001515134
0.001936002
0.002267539
0.003290612
0.000450481
0.003213591
0.0004535275
0.0007155081
0.0007201451
0.001165002
0.002354224
0.000774818
0.0007867214
0.004349467
0.002205684
0.004564779
0.004487752
0.004694616
0.002575946
0.004080298
0.00437509
0.001736156
0.001590813
0.004480054
0.004604522
0.0007201389
0.003255735
0.001411378
0.001328226
0.001695645
0.003740836
0.005679274
0.006924102
0.006403752
0.004118807
0.003252823
0.003281154
0.001319603
0.001848411
0.004140646
0.006249962
0.007135353
0.006772345
0.005821903
0.005121062
0.004734325
0.004025506
0.001482772
0.001791501
0.002059688
0.002236782
0.002331413
0.002395169
0.002476223
0.002562221
0.002662771
0.002788157
0.002903583
0.001797955
0.001507639
0.001941151
0.002316757
0.003512275
0.0004837731
0.003741673
0.000485797
0.0007749003
0.0007782204
0.001155757
0.002738392
0.0008370558
0.000847056
0.004445562
0.001696854
0.004390902
0.004543631
0.004476056
0.002590397
0.004276087
0.004238588
0.004702374
0.003188036
0.004560039
0.004586056
0.003365048
0.00432039
0.004497799
0.001752332
0.004533579
0.001606336
0.004524764
0.004678945
0.004709172
0.0007607121
0.0007699245
0.003148923
0.003097776
0.001516308
0.00140114
0.001346578
0.001683812
0.003689298
0.005705066
0.007202185
0.007223303
0.005017043
0.003752898
0.003829603
0.003927137
0.001418169
0.001835202
0.004057228
0.006277331
0.007417011
0.007314546
0.006486748
0.005742734
0.005454713
0.005246147
0.004436648
0.001722141
0.001793878
0.00207889
0.002271909
0.002372266
0.002437191
0.002519149
0.00262087
0.002738711
0.002894295
0.003120495
0.00339892
0.001909729
0.001495369
0.001933814
0.002340123
0.003664507
0.0005081905
0.004210901
0.0005093969
0.0008148723
0.0008158865
0.001179358
0.003195678
0.0008860601
0.0008945192
0.004255457
0.001546893
0.004212876
0.004332917
0.004278528
0.002662117
0.004135825
0.004105952
0.004526524
0.004365273
0.002395446
0.004506038
0.00458264
0.004557896
0.003176759
0.004475703
0.004468971
0.004625175
0.005015814
0.004081293
0.004543628
0.004533485
0.00408887
0.004297697
0.004481144
0.001752887
0.004507079
0.001615853
0.004501058
0.004717861
0.004731048
0.0007748487
0.0007756434
0.003034608
0.003023491
0.001524207
0.004284835
0.004521795
0.004520843
0.001456255
0.001391248
0.001414929
0.00166985
0.003616401
0.005664769
0.007356575
0.007823417
0.005975873
0.004264501
0.004027179
0.004440232
0.004407011
0.001728908
0.001819434
0.003963617
0.006249767
0.007599292
0.007752886
0.0070915
0.006241545
0.005905465
0.005880063
0.005701928
0.004883279
0.002010386
0.001783426
0.002085781
0.002301489
0.002418954
0.002481107
0.002556179
0.00266325
0.002786309
0.002947177
0.003181223
0.003565074
0.004126964
0.001480909
0.001920105
0.00234709
0.003764622
0.0005258232
0.004605837
0.0005266297
0.0008396749
0.0008391375
0.001228943
0.00372622
0.0009259806
0.0009330918
0.004108878
0.001501912
0.004078186
0.004172349
0.004132338
0.00287551
0.004022255
0.003998439
0.004478296
0.004194053
0.002049925
0.004464837
0.004508391
0.004486649
0.002944087
0.004456856
0.004450489
0.004517097
0.004467897
0.004481152
0.003195811
0.004493799
0.004573989
0.00455374
0.003836268
0.004457957
0.004450353
0.004610728
0.004971869
0.005338748
0.004770486
0.004573063
0.004463142
0.001750709
0.00449767
0.001615707
0.004497277
0.004731064
0.00473845
0.0007757777
0.0007752513
0.003021531
0.003028107
0.004256374
0.004498994
0.001528951
0.004251614
0.004489216
0.004474579
0.004467145
0.001460602
0.004491526
0.004558407
0.001424712
0.001453074
0.001791298
0.001653483
0.003536346
0.005589939
0.00741613
0.008246165
0.00699538
0.004858338
0.004169396
0.004460431
0.004931082
0.004969905
0.002221287
0.001796425
0.003858381
0.006178288
0.007695437
0.008080069
0.007619191
0.006694952
0.006206825
0.006193095
0.00628138
0.00598746
0.003507382
0.003740246
0.004575184
0.004567245
0.000634752
0.002667479
0.003603546
0.0008484671
0.0005749538
0.0009957714
0.001755443
0.002071431
0.002310776
0.002456353
0.002537908
0.002601286
0.002702324
0.002825626
0.002983938
0.003208744
0.003564427
0.00428669
0.001818885
0.003838444
0.00142297
0.002550678
0.002820768
0.001464625
0.001903986
0.002347467
0.003831936
0.0005382076
0.004928966
0.0005389514
0.0008552748
0.0008541322
0.001301682
0.004312759
0.0009588131
0.0009649478
0.003992851
0.001502037
0.003971027
0.004048613
0.004019255
0.003212329
0.003928144
0.003909272
0.004441039
0.004038768
0.001913031
0.004427055
0.004446193
0.004425227
0.002901491
0.00443838
0.004430778
0.004480581
0.004620019
0.004327641
0.002664685
0.004473134
0.004527026
0.004516191
0.003425154
0.004445441
0.004441693
0.004382786
0.004416674
0.004536513
0.004608572
0.003928451
0.00446637
0.004351261
0.004435267
0.004426786
0.004613306
0.004964152
0.005337304
0.005637121
0.005188467
0.005084897
0.004450563
0.001754872
0.004500472
0.001613891
0.00450262
0.004747837
0.004744106
0.0007746882
0.0007739787
0.00303607
0.003041616
0.004247942
0.004483308
0.001528371
0.004248269
0.004481963
0.004452234
0.004451832
0.004472459
0.0014639
0.004442899
0.004460713
0.004526139
0.00451692
0.001435466
0.001492265
0.001865263
0.002349157
0.001631944
0.003451969
0.005499346
0.007417207
0.008519777
0.008044576
0.005576338
0.004365014
0.004396652
0.004869853
0.00527362
0.003938106
0.003927182
0.004445527
0.004325458
0.0009188902
0.003721739
0.003646599
0.0009493474
0.0011086
0.001144987
0.001762424
0.003733265
0.006054216
0.007704432
0.008292573
0.008035112
0.0071589
0.006462037
0.006337562
0.00648765
0.00645925
0.00533233
0.005243845
0.00590516
0.005656821
0.004339125
0.003501708
0.003429154
0.001708001
0.002031041
0.002289254
0.002462771
0.002577923
0.002669231
0.002749368
0.002870604
0.003022761
0.003238989
0.003569684
0.004190646
0.002507502
0.00436261
0.004861526
0.002935374
0.002402358
0.002866733
0.005517955
0.001444999
0.001886576
0.002345759
0.003885044
0.0005472186
0.005195967
0.0005480212
0.0008674117
0.0008663472
0.001397542
0.004963677
0.000986008
0.0009919399
0.003902571
0.001539319
0.003888226
0.003956157
0.003936688
0.00367498
0.003850728
0.003835361
0.00440341
0.003903725
0.001848733
0.004388014
0.004384466
0.004361901
0.003002276
0.004418513
0.004410087
0.004464923
0.004598744
0.004161847
0.002422755
0.004458255
0.004501774
0.004493772
0.003198543
0.004436919
0.004432442
0.004454959
0.004590767
0.0047572
0.004511706
0.004502819
0.004522672
0.003355669
0.004448852
0.003947007
0.004422971
0.004420193
0.00433434
0.004284922
0.004505109
0.00449495
0.004409795
0.004732506
0.004447873
0.004446303
0.004723173
0.004421617
0.004412726
0.00465003
0.004970033
0.005319123
0.00565688
0.005845996
0.005612868
0.003833668
0.003601347
0.004091919
0.003790579
0.001755869
0.004503412
0.001617
0.004509047
0.004755606
0.004725458
0.0007758211
0.0007747237
0.003018194
0.003012191
0.004251529
0.004488118
0.001527111
0.004254284
0.004499176
0.004457422
0.004466502
0.004437622
0.004453148
0.001466562
0.004434516
0.00445059
0.00450497
0.004505949
0.001454862
0.004412371
0.004433642
0.00153627
0.001926383
0.002431554
0.0009979929
0.003542919
0.003424323
0.00102672
0.001169157
0.001176434
0.001603317
0.003357093
0.005397882
0.007377181
0.008680894
0.008744836
0.006445536
0.004676782
0.004373692
0.004711658
0.00522855
0.004874146
0.004738148
0.005189047
0.005029897
0.004231999
0.004045466
0.003234754
0.002993024
0.001716694
0.003585777
0.005861131
0.007605377
0.008364908
0.00831404
0.00762103
0.006750711
0.006434806
0.006514027
0.006580155
0.006249587
0.005912371
0.006437594
0.006002936
0.004644436
0.005074912
0.005117871
0.001640471
0.001962645
0.002233914
0.002428278
0.002572222
0.002705268
0.002833388
0.002934071
0.003076183
0.003283211
0.003604488
0.004188357
0.002301914
0.005204147
0.005367099
0.002840327
0.002260585
0.002857845
0.006076328
0.006477027
0.001421988
0.001866855
0.002342668
0.003940701
0.0005550774
0.005413489
0.0005559998
0.0008808886
0.0008797196
0.001531453
0.005713845
0.001010543
0.001017572
0.003835395
0.001617119
0.00382648
0.003894494
0.003884154
0.00429633
0.003786975
0.003772095
0.004364554
0.003784491
0.001834365
0.004348295
0.004319736
0.004295843
0.003230027
0.004398239
0.004389594
0.004449567
0.004568449
0.004013929
0.002288097
0.004442461
0.004479881
0.004471665
0.003122604
0.004426982
0.004421989
0.004443473
0.004587579
0.004785821
0.004492283
0.004487049
0.004380533
0.003056632
0.004438716
0.003692796
0.004417157
0.004414111
0.00443555
0.004576195
0.004704372
0.004481714
0.004471452
0.004473309
0.00446343
0.004880515
0.004761367
0.004047056
0.004430251
0.00453062
0.004409462
0.004407407
0.004339503
0.004215989
0.00448276
0.00448393
0.004238349
0.004473827
0.004898005
0.00485959
0.004458934
0.004500662
0.004775425
0.004856749
0.004403244
0.004687294
0.005021087
0.005309363
0.005587132
0.005888587
0.006164093
0.003389641
0.002981848
0.003519064
0.003063913
0.003823292
0.003648694
0.001667263
0.004463769
0.001624278
0.003827546
0.004688744
0.004072986
0.0007743282
0.0007635368
0.002971859
0.002802478
0.004252932
0.004526627
0.001531614
0.004259718
0.004563984
0.004495242
0.004512485
0.00443505
0.004455087
0.001475717
0.004438396
0.004467757
0.004516788
0.004537995
0.004406076
0.004425179
0.001497714
0.004402391
0.004422162
0.001615566
0.004423161
0.001930676
0.002255541
0.001059775
0.003291117
0.002928251
0.000863462
0.001113474
0.0007016191
0.002692632
0.002328493
0.001568394
0.003250705
0.005278942
0.007303684
0.008736921
0.00914924
0.00742581
0.005150829
0.004439165
0.004592923
0.005115162
0.005250691
0.005023529
0.005263605
0.005016729
0.004448957
0.00436776
0.00479247
0.004697244
0.004728824
0.004278886
0.001659205
0.003416108
0.005598669
0.007373404
0.008256988
0.008391101
0.00792193
0.00707307
0.006574916
0.006503455
0.006537011
0.006515612
0.006015551
0.006517702
0.005986717
0.005315207
0.005396196
0.005669984
0.00598502
0.001550198
0.001866358
0.002143587
0.002353876
0.002515252
0.002675518
0.002856266
0.003046918
0.003158066
0.003349686
0.003663817
0.004254986
0.00226577
0.005424133
0.005420353
0.002896126
0.002295148
0.002940737
0.006696648
0.006809346
0.001402275
0.001848392
0.002334258
0.004017094
0.00056355
0.005616178
0.0005645317
0.0009009381
0.0008993455
0.001710042
0.006220961
0.001036687
0.001045271
0.003788227
0.001803418
0.003781888
0.003866054
0.003863706
0.005124005
0.003729078
0.003709448
0.004325222
0.003683515
0.001875046
0.004308493
0.004251897
0.004226665
0.00361154
0.004378706
0.004370384
0.004433851
0.004537432
0.003879271
0.002211885
0.004427096
0.00445818
0.004450654
0.00315831
0.004416358
0.004411394
0.004433252
0.00457574
0.004758471
0.004477436
0.004472235
0.00423279
0.002876758
0.004428335
0.003555452
0.004410741
0.004407502
0.004426376
0.004580434
0.004776487
0.004465218
0.004455992
0.004461192
0.004452902
0.00505674
0.004749652
0.003871911
0.004423088
0.004483596
0.004405465
0.004403538
0.004627245
0.00467051
0.00445938
0.004460373
0.004451267
0.004452423
0.00474466
0.004418409
0.00493772
0.005045821
0.004779856
0.004697994
0.004803158
0.004702552
0.004821591
0.004400349
0.004398817
0.004382998
0.004213084
0.004495947
0.004519878
0.004163772
0.004261658
0.004661058
0.00525686
0.004673953
0.004979479
0.004994731
0.005207209
0.00436017
0.004671013
0.00469407
0.005047608
0.004396899
0.004579379
0.005082647
0.005338201
0.005535766
0.005767895
0.006294414
0.002745279
0.00347451
0.003046947
0.003744293
0.003107812
0.001591462
0.002634313
0.001613307
0.0007659186
0.0005162738
0.001842828
0.0004836575
0.004265344
0.004572043
0.001563756
0.004003024
0.003873348
0.00443648
0.003903833
0.004451376
0.004502011
0.001517185
0.004475719
0.004565373
0.004599222
0.004669608
0.004402129
0.004425853
0.001598507
0.004405931
0.00443819
0.004414758
0.001755778
0.004393385
0.004411883
0.001986959
0.002185259
0.001878086
0.00118745
0.001549805
0.003118295
0.005163458
0.00719582
0.008690302
0.009319779
0.008327879
0.005776234
0.004626107
0.004550879
0.005025804
0.005196062
0.004956909
0.005153725
0.004931914
0.00484847
0.004663391
0.004837088
0.004627766
0.00523519
0.004767973
0.005441189
0.004946125
0.001603166
0.003231535
0.005247139
0.007013319
0.007938599
0.008214292
0.007936659
0.007319382
0.006753424
0.006545863
0.006474964
0.006486605
0.00592755
0.006429459
0.005873587
0.005391531
0.005351338
0.006063201
0.00609665
0.001412852
0.001749196
0.002018987
0.002240514
0.002414777
0.002584894
0.002788126
0.00304014
0.003317958
0.003453885
0.003749094
0.004348548
0.00233103
0.005384106
0.005336617
0.002987988
0.002368417
0.003033286
0.006879131
0.006932341
0.001387864
0.001846323
0.002293196
0.004126991
0.0005741876
0.005849155
0.0005749322
0.0009323189
0.0009320312
0.001932782
0.006640295
0.001067237
0.001078437
0.003750513
0.002244029
0.003734008
0.003868317
0.003847926
0.006021089
0.003660751
0.003628939
0.004283678
0.003604332
0.002038171
0.004265475
0.004176314
0.004147893
0.004191327
0.004360371
0.004352563
0.004419555
0.004509451
0.003762297
0.002195652
0.004414331
0.004439109
0.00443381
0.003312242
0.004406176
0.004401908
0.004423041
0.004566905
0.004724421
0.004463002
0.004458486
0.004088572
0.002752346
0.004418595
0.003495929
0.004404183
0.004401207
0.004419694
0.004573226
0.004776598
0.004455401
0.004448279
0.004451836
0.004445961
0.005070972
0.004654459
0.003746452
0.004416634
0.004455608
0.004401563
0.004399682
0.004415472
0.004641361
0.004773663
0.004445046
0.004446297
0.004442483
0.004444138
0.005004558
0.004413213
0.005380992
0.005330945
0.004957279
0.004681016
0.004857308
0.004681364
0.004882533
0.004397587
0.004396444
0.004789004
0.00471083
0.004471772
0.004495223
0.004463474
0.004486202
0.004641943
0.004410409
0.004407856
0.004651883
0.005022322
0.005522464
0.004990336
0.005300257
0.005019693
0.005325631
0.004614847
0.005024255
0.004590215
0.005030753
0.004394328
0.004393244
0.004207597
0.004255808
0.004591094
0.004677862
0.004168007
0.00418418
0.004368858
0.005083579
0.005569823
0.005079769
0.005208397
0.005479298
0.00553372
0.004213697
0.003550613
0.004384479
0.003697333
0.003691795
0.005163801
0.005436514
0.005569441
0.005750446
0.006320588
0.002680026
0.0009661351
0.001070361
0.001371489
0.00149564
0.002323649
0.001388243
0.00150613
0.001612196
0.003407867
0.001661514
0.002403272
0.002816062
0.0006469967
0.003150664
0.0008588158
0.001733138
0.004533576
0.004652094
0.001757772
0.004341996
0.004231013
0.00471332
0.004144359
0.004420042
0.004471284
0.001815626
0.004449342
0.004535234
0.004393245
0.00441533
0.00196256
0.004397467
0.004427276
0.002161548
0.004391192
0.002487358
0.00149496
0.003017722
0.004955761
0.0071153
0.008535982
0.009277318
0.0087306
0.006462955
0.004931625
0.00460798
0.004985401
0.005088857
0.004892713
0.005048919
0.004873978
0.004780088
0.004579334
0.004733162
0.004554708
0.005408098
0.00487552
0.005391436
0.004848342
0.001496013
0.003075546
0.004814693
0.006484713
0.007425322
0.007765163
0.007653278
0.007188934
0.006812043
0.006617337
0.006476922
0.006379572
0.005820448
0.006322689
0.005781453
0.005289099
0.005227532
0.006122699
0.006151148
0.001251708
0.001627644
0.001870524
0.002091513
0.00227694
0.002450888
0.002653961
0.002914263
0.00325122
0.003683041
0.003880354
0.004461059
0.002402506
0.005292377
0.00525571
0.003076555
0.002436544
0.003115089
0.006986945
0.007036745
0.000661777
0.002045024
0.0006401189
0.001436594
0.00130273
0.002219855
0.004153637
0.000586552
0.006114374
0.0005793267
0.0009866724
0.0009743837
0.002206838
0.007036482
0.001103252
0.001115134
0.003596924
0.002808902
0.0034283
0.003608386
0.003369509
0.006793894
0.003560384
0.003491325
0.004235774
0.003546083
0.002457044
0.004215485
0.004083963
0.00404352
0.004943901
0.004343817
0.004338742
0.004409628
0.004491199
0.003671641
0.002297085
0.004408438
0.004427079
0.004427295
0.003614848
0.004398044
0.004395871
0.004414293
0.004565311
0.004693284
0.004451034
0.004448614
0.003954562
0.002679943
0.004411402
0.003514476
0.004398454
0.004396387
0.004413737
0.004571158
0.004772943
0.004447271
0.004442858
0.004444608
0.004441597
0.005053856
0.004531107
0.003631578
0.004411389
0.004421957
0.004397946
0.004396494
0.004411129
0.004635205
0.00478212
0.004440084
0.004442124
0.004438652
0.004441276
0.005061858
0.004409387
0.005517128
0.005408313
0.00505147
0.004682103
0.004923137
0.004681752
0.004940882
0.004395383
0.004394464
0.004408156
0.004844984
0.004867121
0.004457675
0.004479221
0.004455555
0.004476455
0.004971645
0.004406115
0.004406708
0.004405206
0.005194522
0.005765112
0.006099216
0.005160415
0.005557239
0.005206823
0.005604795
0.004583511
0.005092453
0.004592115
0.005130844
0.004392569
0.004392041
0.004636821
0.004787806
0.004562436
0.004656619
0.004551271
0.004641966
0.00460964
0.00441142
0.004423062
0.004439685
0.004390515
0.004528004
0.005343281
0.005841707
0.005535217
0.005682199
0.005568615
0.005719082
0.004312041
0.003644026
0.004288965
0.003629699
0.003357795
0.004505629
0.004792092
0.004276525
0.00435886
0.004233685
0.004279859
0.004577168
0.005404393
0.001239229
0.001261683
0.001217582
0.001212975
0.002589361
0.00129514
0.00265996
0.001281923
0.004501702
0.004944382
0.005810634
0.005902296
0.006030994
0.006254341
0.005260417
0.005534748
0.005924583
0.005899538
0.00123542
0.004797903
0.004829291
0.001499129
0.001710092
0.00202575
0.00137555
0.001568944
0.001015187
0.002245939
0.00303654
0.002915868
0.001673294
0.004418041
0.001646994
0.003428244
0.003260212
0.003220444
0.001736274
0.002297623
0.004301731
0.003559057
0.0009473796
0.003656991
0.0009828763
0.001910956
0.004523341
0.004632534
0.002062743
0.004496953
0.004411532
0.004458364
0.002190765
0.004440494
0.004519323
0.004391341
0.002360531
0.004395873
0.002721806
0.0007235658
0.00541873
0.0009642351
0.001252654
0.001175975
0.0006749057
0.003030276
0.000676884
0.001504008
0.0006725845
0.001601049
0.00165512
0.004823854
0.0069298
0.008368852
0.009021653
0.00871249
0.006986234
0.005282229
0.004767235
0.005018477
0.005011736
0.004854085
0.004986273
0.004841208
0.00468466
0.004538518
0.004645349
0.004525568
0.005398091
0.00485822
0.005421523
0.004885186
0.001630753
0.003039626
0.0006889076
0.001733871
0.004349479
0.005785711
0.006717501
0.007065013
0.00711389
0.006779635
0.006274557
0.006432567
0.006493742
0.006293043
0.005772761
0.006253398
0.005761857
0.005173191
0.005129543
0.006185711
0.006217671
0.001213046
0.001530546
0.001724366
0.001921105
0.002109932
0.002287828
0.002484365
0.002725856
0.003042989
0.003488714
0.004221056
0.004622288
0.002469594
0.005241068
0.005239688
0.003149352
0.002507477
0.003176709
0.007092485
0.007145454
0.002451726
0.002475721
0.00193277
0.002797917
0.002211668
0.0003657857
0.0006301309
0.00145326
0.0003181996
0.003186857
0.0005605208
0.006148193
0.0003878989
0.0009789541
0.0007725997
0.00253123
0.007393103
0.001144909
0.001138362
0.002916553
0.003467872
0.002544137
0.002911125
0.00260151
0.007331213
0.003083924
0.002613885
0.004079312
0.003166665
0.003215938
0.003926606
0.003776154
0.003532864
0.005759834
0.004308473
0.004272733
0.004410805
0.004489785
0.003611944
0.002621375
0.004420584
0.004431427
0.004444468
0.004066256
0.00439575
0.004399669
0.004409882
0.004580798
0.004674764
0.004446426
0.004449449
0.003842181
0.002707701
0.004411064
0.003643601
0.004395172
0.004395485
0.004409693
0.004577923
0.004779358
0.004442443
0.004441063
0.0044419
0.004441957
0.005036592
0.00440185
0.003536436
0.004409047
0.00440354
0.004395459
0.004395054
0.004408054
0.004635621
0.004785743
0.004438462
0.004441651
0.004438319
0.004442187
0.005082383
0.004407235
0.005552856
0.005371262
0.005048371
0.004677252
0.004952649
0.004670988
0.004954069
0.004393799
0.004393457
0.004405641
0.004835264
0.00488748
0.0044546
0.004474685
0.004454052
0.00447374
0.005055263
0.004404795
0.004404951
0.004404762
0.005397178
0.006120749
0.006412842
0.005314306
0.005769561
0.005347059
0.005805242
0.004620162
0.005200655
0.004632961
0.005230528
0.004391664
0.004391474
0.004845001
0.005095554
0.004540142
0.004626538
0.004535454
0.004617609
0.005053021
0.004409957
0.004421402
0.004409394
0.004420683
0.005053322
0.004390293
0.004390223
0.005318465
0.006159204
0.006243489
0.005722006
0.005963061
0.005782943
0.006022002
0.00430853
0.003656712
0.004337691
0.003682371
0.003102659
0.004730621
0.004819513
0.004401864
0.004815054
0.004429658
0.004615283
0.004452545
0.00450973
0.004322685
0.004390997
0.004395723
0.004188173
0.004532811
0.005603181
0.001173546
0.00116661
0.001175873
0.001169359
0.002621261
0.001239704
0.002617436
0.001239583
0.004871914
0.004681957
0.005128433
0.004727038
0.00447825
0.00443699
0.004957581
0.004728023
0.004956721
0.004577735
0.001316124
0.004576381
0.00492753
0.001457388
0.00121775
0.001285506
0.005540857
0.005872712
0.006341594
0.006912393
0.006945786
0.00667727
0.005716146
0.005705223
0.005880339
0.005824466
0.005357387
0.00576636
0.005724992
0.001207111
0.001476814
0.001727934
0.001585125
0.003649996
0.001106127
0.002756666
0.001805388
0.005262466
0.001686083
0.005281048
0.001656076
0.003161528
0.003217129
0.003381662
0.002795915
0.00356053
0.001787097
0.002240547
0.004401212
0.00440694
0.003794674
0.000973397
0.003837895
0.0009626418
0.004500945
0.002037422
0.004511457
0.004622135
0.00229035
0.0044097
0.002534384
0.004437507
0.002804246
0.001025998
0.005713067
0.005701113
0.00102857
0.001296839
0.001308939
0.005643655
0.002986661
0.004954226
0.002709977
0.003217305
0.00301148
0.003421225
0.003644061
0.0006408669
0.001718469
0.0006830739
0.00183998
0.00675382
0.008176062
0.008588765
0.008371137
0.007204557
0.005540493
0.004971545
0.005148931
0.004992811
0.004851577
0.004988048
0.004849292
0.004616873
0.004519989
0.004592851
0.004509898
0.005459604
0.004930519
0.005494025
0.004967259
0.000763987
0.001786959
0.003278876
0.00082562
0.002241926
0.002649756
0.003976608
0.00320822
0.003759863
0.004985125
0.005821632
0.00619774
0.006376918
0.0062323
0.005701289
0.005122589
0.005761248
0.006230724
0.005784024
0.006125418
0.005755296
0.00511541
0.005106248
0.006254209
0.006286628
0.001155366
0.001464436
0.001616735
0.00176294
0.001932665
0.00210965
0.002299408
0.002518986
0.00279413
0.003159084
0.003764301
0.005069856
0.002550681
0.005257495
0.005300209
0.003197534
0.00256984
0.003195226
0.007211091
0.007283926
0.003760117
0.003478871
0.002688806
0.004284856
0.003042688
0.0003552374
0.002337295
0.002886972
0.0003834472
0.0004577242
0.0006278007
0.0005445748
0.001722431
0.006072608
0.002894205
0.007625892
0.001058849
0.0006042005
0.002224478
0.004276131
0.002008353
0.002501579
0.002429751
0.007701949
0.002017007
0.001481694
0.003611184
0.002777291
0.004252619
0.003333765
0.003104396
0.002834254
0.006539243
0.004186766
0.004047166
0.004432865
0.004345907
0.003303481
0.00321714
0.004454027
0.004433297
0.004408914
0.004578723
0.004410291
0.004432263
0.004416523
0.004634012
0.004671022
0.004459851
0.004476615
0.003754677
0.002913056
0.004428411
0.003919644
0.004398267
0.004404976
0.004410291
0.004602378
0.004812276
0.004445463
0.004447203
0.004450235
0.004453238
0.005037838
0.004286739
0.003515291
0.00441383
0.004464515
0.004395692
0.004397816
0.004407316
0.00464608
0.004800962
0.004441308
0.004445848
0.004443453
0.004448693
0.005111446
0.004408379
0.005572356
0.005289809
0.004997055
0.004671018
0.004952373
0.004663738
0.004942559
0.004393642
0.0043945
0.004404854
0.004825233
0.004895894
0.004455914
0.004475118
0.004456841
0.004475824
0.005087555
0.004405419
0.004405262
0.004406563
0.005478087
0.006255062
0.006514774
0.005381686
0.005860891
0.005389157
0.00587183
0.004650377
0.005262696
0.004650683
0.005266966
0.004391596
0.004392079
0.00486127
0.005164701
0.004531184
0.004608776
0.004528918
0.004603297
0.005190073
0.00440943
0.004420639
0.004409847
0.004420998
0.005319024
0.004390336
0.004390648
0.005762691
0.00664521
0.006536091
0.005906011
0.006199521
0.005947276
0.006238704
0.004387323
0.003728914
0.004422176
0.003756657
0.003005267
0.00510858
0.00479754
0.004439148
0.004785293
0.004432397
0.005201233
0.004449475
0.004502867
0.004447739
0.004498414
0.005033434
0.004391111
0.004395994
0.004391374
0.004396374
0.004945162
0.005436845
0.006012659
0.001185367
0.001178852
0.001187657
0.001181835
0.002645847
0.001249947
0.002664654
0.001253835
0.004642811
0.004204622
0.004962513
0.004605612
0.004524505
0.004409223
0.004435371
0.004089727
0.003997211
0.004876063
0.004485259
0.004993361
0.004579928
0.001161599
0.004864714
0.004944117
0.001194202
0.001165291
0.001198867
0.006597375
0.006430477
0.006212574
0.006213859
0.005487016
0.004868986
0.004608486
0.004575305
0.004397838
0.004378021
0.004431149
0.004494853
0.004651689
0.004947885
0.006096301
0.006683847
0.007279956
0.008213705
0.008456178
0.00733948
0.005648838
0.00507918
0.005783604
0.005214295
0.00559866
0.005664648
0.005710087
0.001033632
0.001378689
0.00133733
0.001204571
0.003133289
0.001799434
0.0004547615
0.00439629
0.0003582712
0.0005906115
0.001654461
0.004559144
0.001025301
0.003212603
0.00197253
0.005443447
0.001729391
0.0006221153
0.0009591662
0.00687391
0.001624751
0.005545628
0.001651726
0.002984714
0.002266555
0.003703047
0.001997608
0.003892519
0.0009910418
0.003566719
0.001870887
0.002171115
0.004412418
0.00440538
0.00387397
0.0009585547
0.003871086
0.0009630633
0.004524425
0.004511706
0.002220579
0.004504756
0.002520253
0.002670728
0.001086112
0.00557148
0.005219609
0.00110261
0.001309799
0.001301425
0.00514433
0.004601597
0.004606059
0.006613667
0.004472192
0.005163321
0.005060086
0.005013195
0.005679903
0.003006641
0.003831912
0.003316881
0.004234363
0.000664888
0.001889531
0.000794316
0.002637192
0.007700839
0.007924448
0.007756696
0.007024029
0.00567041
0.004972196
0.005343542
0.005045202
0.004908407
0.005044798
0.004910152
0.004596319
0.004517742
0.004594417
0.004511349
0.005532149
0.005006291
0.005561044
0.005031655
0.0009084017
0.001793767
0.003837589
0.0009578917
0.003052827
0.00285083
0.003677357
0.003974446
0.004139304
0.004167021
0.004565319
0.0009319592
0.003668006
0.004331157
0.004737429
0.005118547
0.004900508
0.005297906
0.005573077
0.005601021
0.005216378
0.004587962
0.003119293
0.005699754
0.005569256
0.004089223
0.004801224
0.005129589
0.005132919
0.006330286
0.006373719
0.001083439
0.001390245
0.001559703
0.001659458
0.001782223
0.001936496
0.002114005
0.002314111
0.002550606
0.002839917
0.003266152
0.003937848
0.002556586
0.005354753
0.005477254
0.003062807
0.002088663
0.001873158
0.007399283
0.007586539
0.00548157
0.00640473
0.00401461
0.006167017
0.004647083
0.0004277215
0.003707577
0.004397504
0.0004762375
0.0006302781
0.002780951
0.0006952178
0.003575636
0.0004934585
0.0006477427
0.0006688994
0.001724203
0.004378209
0.007782417
0.002651847
0.005291881
0.007833453
0.0009149738
0.0006926126
0.002791204
0.003089573
0.005334855
0.002440444
0.002518195
0.002543764
0.006938064
0.003631022
0.00274611
0.004474936
0.003655535
0.003087119
0.004111801
0.004516728
0.00429815
0.004195397
0.00506394
0.004479663
0.004564678
0.004454117
0.004766759
0.004507814
0.00451819
0.004568554
0.003468188
0.003298598
0.004499107
0.004262258
0.004419686
0.004447089
0.004422227
0.004663155
0.004902154
0.004466667
0.004471171
0.004485335
0.004490206
0.005060049
0.00419506
0.003663961
0.004436592