/*--------------------------------*- C++ -*----------------------------------*\
  =========                 |
  \\      /  F ield         | OpenFOAM: The Open Source CFD Toolbox
   \\    /   O peration     | Website:  https://openfoam.org
    \\  /    A nd           | Version:  8
     \\/     M anipulation  |
\*---------------------------------------------------------------------------*/
FoamFile
{
    version     2.0;
    format      ascii;
    class       volScalarField;
    location    "1000";
    object      epsilon;
}
// * * * * * * * * * * * * * * * * * * * * * * * * * * * * * * * * * * * * * //

dimensions      [0 2 -3 0 0 0 0];

internalField   nonuniform List<scalar> 
60977
(
0.001110703
0.001089951
0.002175328
0.00125241
0.001030635
0.002210717
0.001014395
0.003192404
0.002726654
0.001442451
0.0009709439
0.001871188
0.0009487259
0.003525799
0.003761089
0.001209955
0.003970829
0.004117543
0.00336922
0.001609773
0.001540678
0.0009606481
0.002816356
0.0025795
0.0009562532
0.004518113
0.005679795
0.006407718
0.001243027
0.004579364
0.00527789
0.00515592
0.004102634
0.001818089
0.002178497
0.001612611
0.001038203
0.003564832
0.003815859
0.00375294
0.000985364
0.005205683
0.007143976
0.009067347
0.006831631
0.001283507
0.005033151
0.00619644
0.006645588
0.006323066
0.004978624
0.002103687
0.002667067
0.002452087
0.00193212
0.001024381
0.004075597
0.004862607
0.005895215
0.004761547
0.0009855487
0.005643676
0.008295175
0.01108533
0.009927573
0.005701093
0.001528197
0.005352075
0.006893881
0.007816681
0.008140576
0.007850737
0.006144357
0.002485353
0.003001984
0.003157331
0.003241717
0.002366158
0.002831044
0.001059933
0.004208182
0.002077274
0.002900563
0.004384359
0.005666031
0.007779098
0.007519579
0.004003333
0.001284109
0.005857379
0.009133915
0.01290157
0.01229748
0.008669012
0.005408428
0.001937634
0.005563554
0.007405191
0.008713897
0.009516223
0.01002451
0.009707929
0.0079951
0.002972015
0.003211131
0.003663988
0.004473841
0.003963926
0.01061038
0.002004496
0.01119094
0.006104435
0.006558437
0.002159522
0.001673447
0.002311623
0.003171853
0.004539733
0.006229199
0.009276828
0.009757415
0.005813297
0.002601169
0.001887513
0.005896695
0.009653861
0.01449641
0.01464024
0.01141107
0.008659379
0.006246061
0.002280004
0.005702328
0.007776172
0.009396668
0.01055168
0.01155052
0.0123066
0.0123686
0.01092407
0.003666585
0.003298287
0.003987118
0.005442536
0.005412664
0.01792421
0.00335333
0.01852151
0.009845787
0.0103223
0.004274969
0.002387769
0.004141887
0.004170929
0.004697677
0.002805901
0.002225325
0.006346661
0.00480492
0.004573024
0.006580212
0.0103901
0.01169548
0.0075644
0.004049237
0.003268524
0.002222687
0.005824429
0.009912004
0.01576502
0.01693436
0.0142493
0.01176428
0.009742145
0.007700736
0.00267521
0.005811317
0.00806369
0.009931843
0.0113513
0.01264847
0.01408771
0.01527713
0.01621799
0.01568427
0.004731798
0.003304726
0.004148781
0.006130437
0.006609529
0.02475194
0.004677094
0.02519178
0.01327098
0.01367112
0.005309808
0.003242744
0.005402749
0.005611321
0.002462996
0.004043615
0.001569835
0.003402973
0.002117097
0.00311788
0.001355271
0.001011482
0.004879043
0.004185406
0.001338778
0.002082418
0.00901203
0.003274202
0.002968113
0.002481062
0.004521871
0.006752796
0.01112962
0.01340273
0.00949166
0.005800002
0.004356348
0.004262481
0.002434411
0.005710172
0.009992081
0.01672885
0.01900368
0.0170059
0.01461181
0.01293195
0.01167519
0.009676659
0.00347221
0.005899713
0.008335186
0.01040012
0.01201343
0.01348945
0.01527481
0.01713733
0.01927842
0.02187047
0.02363769
0.00635846
0.003256006
0.004183997
0.006544734
0.007561186
0.03052824
0.005894391
0.03086505
0.01621355
0.01652247
0.006515787
0.004249407
0.006731339
0.006962346
0.001527896
0.004218214
0.001518468
0.001967226
0.001958959
0.003404642
0.001013826
0.0009985195
0.002908268
0.004151759
0.0006153807
0.000813114
0.003971604
0.0006880707
0.0005278551
0.005008741
0.001497291
0.004292865
0.001529425
0.002364816
0.002440856
0.01076686
0.01124695
0.003635511
0.00375634
0.003672874
0.002911153
0.002581806
0.004428956
0.006795823
0.01158671
0.01484107
0.01168793
0.007621481
0.005615589
0.005052917
0.00541203
0.003004988
0.005591155
0.009993336
0.01745441
0.02087199
0.01948788
0.01716477
0.01563852
0.01503603
0.01424669
0.0120096
0.005344423
0.005925602
0.008569754
0.01089634
0.01265492
0.01421175
0.01608507
0.01835624
0.02104963
0.02477326
0.03054412
0.03725624
0.008912153
0.003177553
0.004137823
0.006747662
0.008286292
0.03530367
0.007025833
0.03553483
0.01870305
0.01892687
0.007622237
0.005237808
0.007957937
0.008182465
0.001553688
0.004900346
0.001572166
0.002018395
0.002043925
0.004033872
0.001021985
0.001029206
0.0005657375
0.001481891
0.003537995
0.0005590344
0.0006519179
0.0006329986
0.003573149
0.0005152058
0.0005132492
0.002402211
0.003740456
0.004700944
0.0005632793
0.0007226175
0.004966026
0.0006842818
0.0005045991
0.005010328
0.001610447
0.00436382
0.001613431
0.002606397
0.002619749
0.0115172
0.01156837
0.003956862
0.003982452
0.003725786
0.0006908538
0.0005577819
0.0007204642
0.003267375
0.00284898
0.002980485
0.004322543
0.006769296
0.01185684
0.01598746
0.01405029
0.00956932
0.006891836
0.005853606
0.005812234
0.006726492
0.005343394
0.005453297
0.009944545
0.01804237
0.0225668
0.02187716
0.01954446
0.01782532
0.01758503
0.01779407
0.0171905
0.01565232
0.008746077
0.005828485
0.008655478
0.01132358
0.01341234
0.01499103
0.01680483
0.01926758
0.02219272
0.02625472
0.0327497
0.0446864
0.06586482
0.003087891
0.00405148
0.006810197
0.008812131
0.03906867
0.008112379
0.03923919
0.02074493
0.02091178
0.008677235
0.006229182
0.009070088
0.00927695
0.001621554
0.005584475
0.00165286
0.002125728
0.002163931
0.004727242
0.001056278
0.001072142
0.0005566406
0.001427826
0.00381661
0.0005555463
0.0006256795
0.0006248122
0.003724549
0.0005120136
0.0005109659
0.0005026543
0.0006735844
0.001668677
0.003217201
0.0004944721
0.0005330169
0.0005097995
0.003776528
0.000489754
0.0004875976
0.002565176
0.003325474
0.004875797
0.005701525
0.006052331
0.000498787
0.004992025
0.00162792
0.004360535
0.00162873
0.002667599
0.002670835
0.0115767
0.01155085
0.00398755
0.003966634
0.0006969843
0.0005563531
0.003757834
0.0006975576
0.0005538655
0.000725864
0.0007263275
0.003295146
0.0004932572
0.0005231235
0.003062589
0.00323762
0.005939843
0.004203503
0.006704521
0.01204489
0.01690355
0.01629429
0.01173899
0.008194177
0.006595713
0.006157841
0.006662643
0.01021856
0.01057673
0.005256962
0.009784491
0.01844548
0.02414204
0.02420589
0.02194578
0.01969242
0.01932724
0.02016448
0.02099873
0.01973501
0.02064724
0.01752779
0.02884749
0.02162188
0.0137876
0.1048723
0.07510748
0.01336064
0.03678581
0.02441145
0.005568918
0.008483514
0.01145414
0.01403253
0.01603511
0.01770518
0.02012867
0.02315695
0.02728583
0.0337252
0.0451407
0.07180311
0.2432905
0.0944532
0.5671913
0.359363
0.5644598
0.002992222
0.003951991
0.006817273
0.009214161
0.04187661
0.009127921
0.04204542
0.02233301
0.02249174
0.009717563
0.00725493
0.01006073
0.01025158
0.00170414
0.006283101
0.001747511
0.002255474
0.002306841
0.005461865
0.00109774
0.001121457
0.0005546939
0.001480796
0.004226396
0.000554164
0.0006234335
0.0006242442
0.004095606
0.0005095803
0.0005084022
0.0004910686
0.0005464531
0.001460668
0.003073576
0.0004891254
0.0005016524
0.0004988323
0.003402516
0.0004862689
0.0004851998
0.000659612
0.0009341594
0.0004988328
0.001980911
0.003228093
0.0004846583
0.00403394
0.0004823641
0.0004800186
0.002682356
0.003520929
0.004672214
0.006414434
0.007012749
0.009819403
0.0004954341
0.005035989
0.001635925
0.004345847
0.001653014
0.002708057
0.002734198
0.0115227
0.01148919
0.003942589
0.003921457
0.0006968795
0.0005533775
0.00375182
0.0006953573
0.0005531549
0.0007324955
0.0007368773
0.0004879047
0.003315364
0.0004930933
0.0004844646
0.0005161711
0.0005143408
0.00313194
0.003524991
0.006776266
0.01248665
0.004053834
0.00658781
0.01217959
0.01772894
0.01831186
0.01438785
0.009617871
0.007271854
0.006513885
0.006540031
0.007895387
0.01552542
0.01555721
0.01604437
0.01521792
0.01536941
0.06498352
0.05666354
0.01661062
0.02326302
0.02374382
0.004971622
0.009433708
0.01846753
0.02536943
0.0264701
0.02436352
0.02159258
0.02060234
0.02147995
0.02313048
0.02249842
0.03129936
0.02026695
0.03309705
0.0194581
0.07870078
0.4129603
0.2884188
0.005144409
0.008019345
0.0111294
0.01411831
0.01678353
0.0191148
0.02119073
0.02428227
0.02838146
0.03473121
0.04547878
0.06759308
0.2910296
0.07157663
0.05950888
0.4394516
0.2425106
0.3741361
0.4848341
0.002885237
0.003846735
0.006813102
0.009594361
0.04400607
0.01008947
0.04420169
0.02355671
0.02374037
0.01077455
0.008337435
0.01093365
0.0111284
0.001808844
0.007036083
0.001866912
0.002421233
0.002490748
0.006282003
0.001148996
0.001181306
0.0005531058
0.001554495
0.004683268
0.000552982
0.0006231249
0.0006248297
0.004550942
0.00050675
0.0005056273
0.0004870247
0.0005322779
0.001489367
0.003271025
0.0004852589
0.0004954396
0.0004937252
0.003474846
0.0004838341
0.0004825279
0.0004816534
0.0005168267
0.0006373843
0.0004904762
0.0004878928
0.001498883
0.002594802
0.0004800048
0.003136548
0.000478991
0.000478205
0.000680223
0.0009289008
0.0004904265
0.0004879438
0.001386743
0.002523829
0.003544384
0.0004789256
0.004934721
0.0004783281
0.000475895
0.002859137
0.00375995
0.00493621
0.0065134
0.008329556
0.01213568
0.01671992
0.02007221
0.01571743
0.01892528
0.00509759
0.001705022
0.004374813
0.001757228
0.002872389
0.002962918
0.01157315
0.011541
0.004000831
0.004007244
0.0006956931
0.0005562114
0.003741709
0.0006968325
0.0005614186
0.0007534066
0.0007713463
0.0004914562
0.0004823655
0.003331508
0.0004903844
0.0004815992
0.0005127276
0.0005141188
0.003256277
0.0004755877
0.0004752666
0.003846234
0.007710049
0.01535779
0.01919907
0.05233329
0.05288043
0.02105529
0.02530727
0.02792812
0.003856267
0.006375631
0.0122176
0.01844769
0.0201778
0.01699616
0.01127799
0.007993958
0.006824841
0.006550901
0.00694645
0.01194909
0.009920027
0.01051806
0.008473912
0.06265368
0.04944649
0.2430822
0.2145226
0.0045946
0.008886688
0.01791703
0.02583076
0.02814751
0.02674487
0.02367604
0.021895
0.02226143
0.02395414
0.02369698
0.03404946
0.01970737
0.03481499
0.01990596
0.05332107
0.04260174
0.3381196
0.00457471
0.007300275
0.01034969
0.01349148
0.01662662
0.01986917
0.02317401
0.0259195
0.02991884
0.03619603
0.04686656
0.06777292
0.2190104
0.05646604
0.05670753
0.352036
0.2109591
0.3536731
0.3480305
0.2866785
0.002762638
0.003727204
0.006815169
0.01003475
0.04594018
0.0110468
0.0462027
0.02467968
0.02492992
0.01196035
0.009733187
0.01176331
0.01200809
0.001947144
0.007899386
0.002026171
0.002644621
0.002742664
0.0072461
0.001214678
0.001257994
0.000552496
0.001654774
0.005208931
0.000553326
0.0006251914
0.000628652
0.00509977
0.000504124
0.0005033635
0.0004829829
0.0005269132
0.001556287
0.003554671
0.0004811183
0.0004905158
0.0004888248
0.003700732
0.0004809518
0.0004795041
0.0004785283
0.000500965
0.00060179
0.0004847525
0.0004834139
0.001476446
0.002597142
0.0004771862
0.002955655
0.0004773215
0.0004764334
0.0004761475
0.0005172111
0.0005932232
0.000482574
0.0004798999
0.0004800473
0.000477483
0.0007980225
0.001621358
0.002392946
0.000474746
0.003356789
0.0004750488
0.0004744851
0.0007369213
0.001002969
0.0004847423
0.0004853248
0.001408929
0.002124704
0.00340932
0.004864251
0.008189544
0.008549487
0.006729527
0.00710106
0.0004731227
0.003447929
0.004203317
0.005402988
0.00689259
0.008877588
0.01531241
0.02589519
0.0348444
0.02470041
0.03362821
0.04138636
0.04101595
0.005623919
0.001875563
0.004450224
0.002996967
0.003421585
0.005275165
0.01159317
0.01135923
0.00413107
0.004321798
0.0007069361
0.0005764736
0.00377545
0.0007162639
0.0006070554
0.0008307018
0.0009130601
0.0004905015
0.000482934
0.003392807
0.0004914623
0.000486533
0.0005205514
0.0005294396
0.0004737258
0.0004728513
0.003548297
0.0004726081
0.0004718965
0.004449896
0.0004726024
0.007764511
0.01724686
0.02493831
0.05578131
0.0518193
0.03569461
0.03473963
0.06822617
0.1881101
0.1643329
0.003602824
0.006067536
0.01206441
0.01898158
0.02170974
0.0195301
0.01326344
0.008889089
0.007157996
0.006600454
0.006605597
0.009514391
0.007264741
0.009279155
0.006983004
0.03861962
0.02879491
0.03070355
0.02359618
0.2741174
0.2211773
0.004134051
0.008151757
0.01683405
0.02520847
0.02854059
0.02818586
0.02579567
0.02334981
0.02311845
0.02426013
0.02374568
0.03530215
0.02021281
0.03532468
0.02025039
0.03990825
0.04022231
0.2249421
0.1876529
0.003872943
0.006407163
0.009217465
0.01224717
0.01546653
0.01916648
0.02370371
0.02900171
0.03236826
0.03845871
0.04924423
0.07113107
0.2144358
0.05853547
0.06053391
0.3653705
0.2236031
0.3813724
0.2745085
0.2802805
0.002623217
0.003601771
0.006804723
0.01064247
0.04818332
0.01206761
0.04860248
0.02596779
0.02639021
0.01344304
0.01121215
0.01269798
0.01302052
0.002158157
0.009068731
0.002278873
0.002990386
0.003144931
0.008512635
0.001312213
0.001380248
0.0005543267
0.001801561
0.005863666
0.000557022
0.0006323259
0.0006391859
0.005795966
0.0005024393
0.000502457
0.00047889
0.0005228775
0.001650903
0.003902484
0.0004771733
0.0004859074
0.0004845484
0.004018164
0.0004778851
0.0004764618
0.0004756604
0.0004967211
0.0005963897
0.0004804985
0.0004791655
0.001533065
0.002758589
0.000474273
0.003024201
0.0004754524
0.0004745126
0.0004737104
0.0004987435
0.0005489814
0.0004777897
0.0004753819
0.0004767358
0.0004745916
0.000714224
0.001508555
0.002211405
0.0004727981
0.002993712
0.0004739336
0.0004733809
0.0005411643
0.0006075071
0.0004763788
0.0004766194
0.0004738467
0.0004741291
0.0007401828
0.0004713692
0.001078991
0.001984101
0.003032596
0.005221534
0.005438903
0.004952571
0.005188856
0.000472398
0.0004719917
0.0009633264
0.001166333
0.0004893902
0.0004964862
0.001593679
0.002188994
0.003256751
0.005697301
0.009309268
0.01104078
0.007937048
0.009810018
0.02226498
0.02086184
0.01875242
0.0182266
0.000471276
0.007591596
0.00567578
0.006375911
0.007802794
0.009439831
0.01648512
0.04753761
0.04494326
0.04438408
0.1715435
0.1289599
0.004764721
0.01733584
0.00437949
0.01257064
0.01282358
0.009660446
0.02150454
0.0007530126
0.0007035996
0.004021534
0.00090006
0.001552181
0.001261012
0.002940729
0.0004959582
0.0004968928
0.003686266
0.000504329
0.0005183682
0.000558312
0.0006061091
0.000472464
0.0004727795
0.004310688
0.000473428
0.0004759328
0.0004702198
0.005693038
0.0004702328
0.0004693229
0.008198938
0.01570022
0.1445076
0.116477
0.003300082
0.005598344
0.01186306
0.01922125
0.02270629
0.02151891
0.01545924
0.009945956
0.007615692
0.006718529
0.006471911
0.009081942
0.006744214
0.009037708
0.006707638
0.02827135
0.02154623
0.02819631
0.02137799
0.1731601
0.1374291
0.1500162
0.1234641
0.003556309
0.007350025
0.01510118
0.02364366
0.02730705
0.02779541
0.02646197
0.02487151
0.02413362
0.02472169
0.02360846
0.03546623
0.02021189
0.03530386
0.02013183
0.04146511
0.04284504
0.1822687
0.1876929
0.002949742
0.005429361
0.007889554
0.0106027
0.01359285
0.0172036
0.02199447
0.02876633
0.03751865
0.04219562
0.0528088
0.07587455
0.2344976
0.06280218
0.06509045
0.3995632
0.2458516
0.4181001
0.2928435
0.3080555
0.002509283
0.003438688
0.006923597
0.01157671
0.0514187
0.01330113
0.05215707
0.02786681
0.02867069
0.01504467
0.01274258
0.0138729
0.01434976
0.002510551
0.01081765
0.002683904
0.00357417
0.003803184
0.009969866
0.001473953
0.001569237
0.0005617855
0.002052253
0.006827483
0.0005684385
0.0006509607
0.0006649513
0.006727464
0.0005030296
0.0005048476
0.0004753008
0.0005215287
0.001794398
0.004359379
0.000474087
0.0004825089
0.0004820048
0.004450184
0.0004749749
0.0004737707
0.0004728027
0.0004942176
0.0005951708
0.0004763364
0.0004751894
0.001619239
0.002984303
0.0004715531
0.003196156
0.0004735534
0.0004726957
0.0004718654
0.0004952556
0.0005421103
0.0004751328
0.0004732788
0.00047419
0.0004726779
0.0007089755
0.00155627
0.002291905
0.000471013
0.003000142
0.0004728153
0.0004722765
0.0004706111
0.0005166265
0.0005508147
0.0004721245
0.0004723996
0.0004714545
0.0004718471
0.0006327974
0.0004699944
0.0009006445
0.001748089
0.002724865
0.004724679
0.004990374
0.004713863
0.004994783
0.0004716511
0.0004713281
0.00066447
0.0006691796
0.0004796688
0.0004857195
0.0004768945
0.0004826928
0.0007835193
0.0004691147
0.0004683176
0.0009964087
0.001614564
0.003481343
0.005993452
0.007433164
0.005773722
0.007253795
0.01672284
0.01598975
0.01649736
0.01570936
0.0004706551
0.0004703832
0.002970723
0.001821397
0.0005188004
0.0005594153
0.002003498
0.002576015
0.00329336
0.005714184
0.01334912
0.02155594
0.01826072
0.01921124
0.016457
0.1065107
0.07926201
0.09766419
0.07304786
0.02111631
0.01331576
0.009282049
0.009861535
0.01129831
0.01437155
0.05910832
0.2108956
0.3114799
0.07314091
0.09894117
0.09496953
0.06189771
0.004440163
0.004357178
0.01665921
0.004774564
0.009609078
0.003521263
0.01413246
0.003021444
0.01033437
0.00548295
0.0005353081
0.0005876871
0.005733936
0.0006780154
0.001106045
0.00080829
0.001790415
0.0004773921
0.000484868
0.006314694
0.0004858116
0.0005039627
0.0004701369
0.0004701258
0.007943604
0.0004712283
0.0004731563
0.01044864
0.0004697304
0.01648596
0.003003483
0.005201987
0.01093824
0.01980688
0.02298005
0.02248416
0.01698249
0.01101885
0.008189292
0.006981085
0.006490782
0.009018393
0.00672265
0.009031161
0.006764549
0.02885679
0.02180324
0.02975726
0.02244436
0.1465064
0.1205393
0.1504427
0.1234515
0.002981439
0.00673616
0.01297061
0.02084382
0.02478012
0.02543179
0.02496435
0.02439974
0.02517607
0.02533495
0.02401078
0.03561904
0.02014547
0.03575023
0.02019258
0.04424861
0.04558336
0.197097
0.2076825
0.002115248
0.004479911
0.006519782
0.008800154
0.01139469
0.01458468
0.01890687
0.02528761
0.03525704
0.05124212
0.05874762
0.08179351
0.2563671
0.06769882
0.07039862
0.4368397
0.2665536
0.4550806
0.3260137
0.3441587
0.004961886
0.003341606
0.004135073
0.003203511
0.003665088
0.006476227
0.01437255
0.05649428
0.01483894
0.05846744
0.03139137
0.03418477
0.01677375
0.01439366
0.01544911
0.01618624
0.003042103
0.01269082
0.00336734
0.004578053
0.005036712
0.0114972
0.001703547
0.001830417
0.0005806744
0.002514533
0.008394776
0.0005955879
0.0006928029
0.0007224077
0.007856743
0.0005085209
0.0005140102
0.0004731663
0.0005272463
0.002048839
0.005055029
0.0004732472
0.0004821445
0.0004837307
0.005041691
0.0004727001
0.0004721276
0.0004703604
0.0004937723
0.0005987632
0.0004728023
0.0004721986
0.001750204
0.003290791
0.0004695405
0.003455939
0.0004719042
0.0004713092
0.0004702187
0.0004945123
0.0005404979
0.000472949
0.000471794
0.0004722346
0.000471458
0.0007158876
0.001644051
0.002450174
0.0004695652
0.003124682
0.0004717814
0.0004713668
0.0004694367
0.0005122878
0.000542494
0.0004708354
0.0004713065
0.0004704493
0.0004710806
0.000619917
0.0004689569
0.0008938744
0.00179631
0.002807211
0.004806451
0.005135908
0.004871925
0.005213555
0.0004710287
0.0004707687
0.0004685518
0.0006105426
0.0005888181
0.0004752485
0.0004806184
0.0004746842
0.0004798909
0.000638723
0.0004679085
0.0004681702
0.0004676808
0.000764196
0.001294758
0.003159971
0.005625274
0.00712582
0.005644823
0.007140976
0.01680868
0.01596989
0.01727133
0.01629919
0.0004702051
0.000470061
0.001830018
0.0009846133
0.0005043251
0.0005382403
0.000499897
0.0005312143
0.0009271499
0.0004691644
0.0004721255
0.001094924
0.0004695791
0.001413714
0.003160817
0.009886164
0.0164563
0.01341929
0.01614197
0.01315379
0.09449553
0.06946117
0.09645595
0.07052672
0.01424612
0.00619199
0.0007254736
0.001575912
0.003540485
0.003493372
0.003987665
0.004717012
0.01312941
0.03500961
0.03724373
0.02993079
0.02963819
0.0568236
0.03849903
0.05166721
0.03472982
0.02050512
0.02516165
0.02137689
0.01524269
0.01564216
0.01718886
0.02218287
0.02097461
0.01888223
0.01678519
0.4789908
0.1373058
0.04357871
0.789526
0.1479444
0.2360195
0.003554891
0.003873314
0.01836016
0.01120656
0.01807199
0.01315676
0.004741299
0.01425178
0.004695042
0.01257431
0.01896403
0.01413429
0.005518095
0.006310262
0.00101611
0.001909746
0.01056216
0.001818786
0.01095996
0.007371312
0.0005139276
0.0005625984
0.009263497
0.0006185566
0.0004751212
0.0004814057
0.0110578
0.0004832588
0.0004988583
0.0004697251
0.01362229
0.0004709187
0.01945578
0.02080467
0.09271894
0.01909031
0.03666921
0.04095646
0.00531864
0.005242745
0.004896459
0.003575668
0.004812996
0.003297812
0.003828575
0.01022704
0.0193861
0.02353134
0.02207641
0.01731204
0.01158089
0.008716151
0.007373065
0.006725651
0.009129573
0.006883495
0.009205834
0.006959235
0.03081257
0.02328302
0.03180652
0.02403863
0.1575292
0.1288769
0.1652795
0.1345847
0.0038708
0.006754785
0.005654044
0.004275492
0.010795
0.01706037
0.02108853
0.0215618
0.02174423
0.02171778
0.02311335
0.02634792
0.02500035
0.03663225
0.02062798
0.03743164
0.02099656
0.04702406
0.0484059
0.2194536
0.2306843
0.001966189
0.003774328
0.005286257
0.007063748
0.009192235
0.01185463
0.01545917
0.02064503
0.02885065
0.04358234
0.07640306
0.09170899
0.2757281
0.07375998
0.07761036
0.4738508
0.2849237
0.4940764
0.3632129
0.3812862
0.004370601
0.006597905
0.004531332
0.004899361
0.005167098
0.004998204
0.004021544
0.004637868
0.009844433
0.01213745
0.07327242
0.01758755
0.115883
0.04449049
0.05419608
0.01838614
0.01599559
0.01823992
0.02050778
0.00415062
0.01429668
0.004877591
0.006451407
0.007452262
0.01290109
0.002075013
0.002419841
0.0006533168
0.003534386
0.01056399
0.0007293476
0.0008504425
0.001007736
0.008974738
0.0005317886
0.0005559726
0.0004746671
0.0005493125
0.002537115
0.006214563
0.0004784194
0.0004887862
0.000496814
0.00578309
0.0004721822
0.0004734156
0.0004691034
0.0004980708
0.0006148645
0.0004711291
0.0004719382
0.001983667
0.003757481
0.0004693928
0.003823757
0.0004709574
0.0004710369
0.0004690983
0.0004962883
0.0005425019
0.00047167
0.0004712844
0.0004714807
0.0004714806
0.0007309464
0.001771819
0.002666914
0.00046891
0.003314889
0.0004710728
0.000470956
0.0004686047
0.0005121718
0.0005421371
0.0004704578
0.0004712086
0.0004703912
0.0004713247
0.0006225245
0.000468381
0.0009179426
0.001907736
0.002977662
0.005034813
0.00540875
0.005111733
0.005488733
0.0004705827
0.0004704883
0.0004678924
0.0005945201
0.0005758133
0.0004744965
0.0004794626
0.0004743405
0.000479209
0.0006180218
0.0004675908
0.0004677119
0.0004675937
0.0007344117
0.001287497
0.003288803
0.005868563
0.007467824
0.005955552
0.007541647
0.01798632
0.01695207
0.01855395
0.01737991
0.0004699589
0.0004699093
0.00146281
0.000801817
0.0004966002
0.0005242942
0.0004952561
0.000521376
0.0007118852
0.0004688399
0.0004717699
0.0004687178
0.0004716181
0.0007714797
0.0004695333
0.0004695219
0.000985764
0.002712761
0.009751632
0.01639835
0.01325934
0.0166408
0.01337003
0.1003942
0.07313601
0.1042909
0.07546614
0.009210372
0.003432522
0.0006674502
0.001257053
0.0006467072
0.001184037
0.001667263
0.0004799178
0.0004961116
0.00142931
0.000469674
0.0004709333
0.001580514
0.002024907
0.009729031
0.02607772
0.02562417
0.02603084
0.02561726
0.04774476
0.03073556
0.04807207
0.03050895
0.01981992
0.01943368
0.01143092
0.006532517
0.005873108
0.005788608
0.007371106
0.006674642
0.00570261
0.004990157
0.04228325
0.01210742
0.007682461
0.05700106
0.02999653
0.03526855
0.01848351
0.02343843
0.02961059
0.0308598
0.02528299
0.02472987
0.02451102
0.02728931
0.01970702
0.02299761
0.04233731
0.4077609
0.1820277
0.002495373
0.003219626
0.00572122
0.003814426
0.01047196
0.01912646
0.01336392
0.006014708
0.01722181
0.005048631
0.01500562
0.004798196
0.008648653
0.01632949
0.01257904
0.01382835
0.01234858
0.006033224
0.005323675
0.0008732916
0.0008371144
0.001538578
0.01040322
0.001519551
0.009965028
0.0005985254
0.008926014
0.0005086865
0.0005483699
0.01267541
0.0004747576
0.01706241
0.0004825455
0.02123393
0.02115625
0.09829076
0.09395799
0.02105365
0.03742497
0.03549934
0.2826944
0.005904888
0.01047437
0.005087473
0.005992821
0.005879624
0.006792472
0.007174266
0.004441442
0.005043374
0.005096633
0.005402473
0.01860023
0.02389412
0.02065816
0.01643557
0.01130801
0.008724249
0.007777872
0.007186948
0.009490776
0.007191867
0.009679434
0.007307997
0.032898
0.02487412
0.03385723
0.02555284
0.1740846
0.1413387
0.1821413
0.1472324
0.007883493
0.005345091
0.008399701
0.0100227
0.008147837
0.01153884
0.009147452
0.007187408
0.008510899
0.01286818
0.0163477
0.01699399
0.01760907
0.01795217
0.01895313
0.02292924
0.02890485
0.03925571
0.0219881
0.041717
0.02297907
0.05022958
0.05203096
0.2419084
0.2519651
0.001747318
0.003359998
0.004436894
0.005645073
0.007247873
0.009371089
0.01225357
0.01626291
0.02228358
0.0322956
0.05518727
0.1358136
0.2951849
0.08305303
0.09306678
0.5222912
0.3166065
0.5750038
0.3997369
0.4181434
0.008314011
0.0129757
0.007766463
0.01026044
0.01013925
0.01379989
0.006076458
0.00751872
0.01750294
0.003793182
0.003919506
0.006197418
0.007207025
0.01907617
0.02433224
0.01792778
0.02768008
0.04607678
0.007991926
0.0157548
0.01207751
0.01185936
0.01577326
0.013975
0.003688317
0.006475294
0.0008919707
0.005783629
0.01245159
0.001119462
0.001389837
0.001847265
0.009734505
0.0006071137
0.0006909867
0.0004899218
0.0006461397
0.003591859
0.007917386
0.0005112966
0.0005250739
0.0005682412
0.006498241
0.0004774644
0.0004860696
0.0004708438
0.0005132019
0.0006584936
0.0004739985
0.0004786639
0.00243313
0.00452916
0.0004740547
0.004335233
0.000471819
0.0004737099
0.0004692366
0.0005029783
0.0005525488
0.0004725053
0.0004729008
0.0004736585
0.0004743936
0.000766392
0.001990174
0.002986357
0.0004701886
0.003594667
0.0004711364
0.0004717363
0.000468415
0.00051514
0.0005461783
0.0004712955
0.000472373
0.0004717906
0.0004730571
0.000632128
0.0004687078
0.0009563546
0.002054595
0.003173728
0.005301314
0.005681158
0.005375485
0.005740167
0.000470545
0.0004707918
0.0004676954
0.0005886223
0.0005755831
0.0004749456
0.0004796771
0.0004751521
0.0004798322
0.0006203246
0.0004677896
0.0004678178
0.0004681164
0.0007438964
0.001342607
0.003498619
0.006207838
0.007896546
0.006290727
0.007968934
0.01921482
0.01794845
0.01968404
0.01828296
0.0004699486
0.0004700906
0.001329242
0.0007544733
0.0004942311
0.0005183782
0.0004936201
0.0005167788
0.0006755016
0.0004687541
0.0004716487
0.0004688891
0.0004717769
0.0007172187
0.0004695609
0.0004696551
0.0009175924
0.002765603
0.01031488
0.01732899
0.01398906
0.01766772
0.01418799
0.1092355
0.07885981
0.1132703
0.08134512
0.007052636
0.002480451
0.00062349
0.001071816
0.0006148413
0.001049982
0.001167179
0.0004792046
0.000494196
0.0004787915
0.0004929995
0.0009193976
0.0004697278
0.0004710404
0.0004698143
0.000471166
0.0009712361
0.001364471
0.009423033
0.02660081
0.02618
0.02673946
0.02637383
0.04963175
0.03120236
0.05077575
0.03147322
0.01588906
0.01303504
0.006175955
0.0005401379
0.002955063
0.0004746962
0.0004820086
0.002308699
0.002215922
0.003321227
0.002579621
0.002950169
0.002218374
0.02530276
0.005205329
0.004711434
0.02752175
0.02535883
0.02763866
0.02032673
0.02398798
0.0243261
0.01860278
0.01153993
0.009634643
0.007936522
0.009354173
0.005813707
0.006674451
0.01144514
0.00615555
0.04567708
0.02269866
0.02414569
0.02146657
0.02432196
0.03148933
0.0408087
0.03677314
0.0345239
0.04506588
0.03171827
0.04397543
0.05061748
0.05705281
0.1557992
0.001604262
0.002670116
0.002783277
0.001884075
0.007669987
0.005432265
0.004452981
0.01515724
0.00770672
0.005443659
0.007415636
0.01168647
0.01392554
0.01434548
0.007205913
0.02940556
0.005414584
0.006348664
0.01320104
0.02159172
0.004533354
0.01374714
0.004767264
0.007090034
0.01191475
0.01196872
0.01112216
0.01280385
0.01206719
0.01570813
0.006914381
0.0052327
0.0007882946
0.0007780515
0.001458646
0.009796982
0.001460631
0.009909629
0.0005814504
0.0005708318
0.01151859
0.0005056309
0.01721094
0.02256976
0.02473698
0.09033451
0.08755625
0.02607075
0.03547667
0.03748895
0.250415
0.2331031
0.01002204
0.01704287
0.00999627
0.01264123
0.01138676
0.01111007
0.01337831
0.006997082
0.009058721
0.008151968
0.01089255
0.004657154
0.00756771
0.008215142
0.01577371
0.0217645
0.01803705
0.01450938
0.01043341
0.008171703
0.00732748
0.007921447
0.01023564
0.007705674
0.01067021
0.007939156
0.03509544
0.02639026
0.03617656
0.02702005
0.1901494
0.1531651
0.1969417
0.1579443
0.01354615
0.005412016
0.01016672
0.01612965
0.01306088
0.01128898
0.01056371
0.00915907
0.01613784
0.01177922
0.01695699
0.01341945
0.03129045
0.009461295
0.01116131
0.01185682
0.01154858
0.01254732
0.01345476
0.01405081
0.01477432
0.0171182
0.02922002
0.05226064
0.02584024
0.106504
0.02952411
0.05488501
0.05892035
0.2617327
0.2707005
0.001478281
0.002953378
0.004022957
0.004799439
0.005833746
0.007360734
0.009565612
0.01260965
0.01692488
0.02335747
0.03605729
0.07712768
0.370244
0.1249326
0.3826188
0.7427216
0.4114659
1.330311
0.4425556
0.4843441
0.01710207
0.02129767
0.02037554
0.02106997
0.02744841
0.02445031
0.01115479
0.01556542
0.03418595
0.009133611
0.009998102
0.01218585
0.01330559
0.00367857
0.00426327
0.007583339
0.01489123
0.02021844
0.01919989
0.01997076
0.01775601
0.01438377
0.01742081
0.02494492
0.002021848
0.01188057
0.01372336
0.004859589
0.003841746
0.008135148
0.009992791
0.0009756144
0.001985758
0.0005596017
0.001183938
0.00623187
0.009801666
0.0006609106
0.0006726819
0.0008671521
0.00689949
0.0005072369
0.0005542322
0.0004814574
0.0005582369
0.0007916472
0.0004912808
0.0005119573
0.003364332
0.005657907
0.0004951827
0.0048719
0.0004779643
0.0004860561
0.0004724633
0.0005200071
0.0005811092
0.0004782611
0.0004793321
0.00048302
0.00048417
0.000845504
0.002404853
0.003542829
0.0004763878
0.004224945
0.0004730979
0.0004755705
0.0004695975
0.0005230353
0.0005582068
0.0004744854
0.0004758888
0.0004762788
0.0004778152
0.000656018
0.0004710783
0.001028838
0.002277666
0.003432246
0.005634327
0.005963433
0.005768618
0.006062568
0.0004713726
0.0004723877
0.0004682359
0.0005884901
0.0005813959
0.0004767222
0.0004813191
0.0004774886
0.0004820123
0.0006315671
0.000468768
0.0004689119
0.0004696588
0.0007676587
0.001418487
0.003717717
0.00648991
0.008226583
0.006539154
0.008268705
0.02023298
0.01868568
0.02056409
0.01885788
0.0004703982
0.0004709053
0.00127886
0.0007401315
0.0004937588
0.0005157732
0.0004936703
0.0005149922