/*--------------------------------*- C++ -*----------------------------------*\
  =========                 |
  \\      /  F ield         | OpenFOAM: The Open Source CFD Toolbox
   \\    /   O peration     | Website:  https://openfoam.org
    \\  /    A nd           | Version:  8
     \\/     M anipulation  |
\*---------------------------------------------------------------------------*/
FoamFile
{
    version     2.0;
    format      ascii;
    class       volScalarField;
    location    "1000";
    object      k;
}
// * * * * * * * * * * * * * * * * * * * * * * * * * * * * * * * * * * * * * //

dimensions      [0 2 -2 0 0 0 0];

internalField   nonuniform List<scalar> 
60977
(
0.003155126
0.003146875
0.005080067
0.003450482
0.00303801
0.005250208
0.003010627
0.006550948
0.005966969
0.003804491
0.002928729
0.004692318
0.002895569
0.007146262
0.009136549
0.003398533
0.007567536
0.007845099
0.006888694
0.004100574
0.004136894
0.002920637
0.006133346
0.00715049
0.002924462
0.008422451
0.01291823
0.01398897
0.003463866
0.008317208
0.009254213
0.00913893
0.007844398
0.0044432
0.005159845
0.004677013
0.003069352
0.007163935
0.009944197
0.01000397
0.002989097
0.009252593
0.01552471
0.01924822
0.01468989
0.003536034
0.008855609
0.01029687
0.0108291
0.01043996
0.008900568
0.004894384
0.005886399
0.006081125
0.005391413
0.00310367
0.007826993
0.01209166
0.01477233
0.01245998
0.002974509
0.009762438
0.01738708
0.02285437
0.02082127
0.01275621
0.003970572
0.009224949
0.0110544
0.01207047
0.01235647
0.01200417
0.01022351
0.005468406
0.006360096
0.007165127
0.007440405
0.006577114
0.002881047
0.003140549
0.003137037
0.002819283
0.003055409
0.008214843
0.01357782
0.01851519
0.01847033
0.01093187
0.003543649
0.01000623
0.0186241
0.02576124
0.02512264
0.01858056
0.01198214
0.004650488
0.009466132
0.01159386
0.01297874
0.01371597
0.01411858
0.01378816
0.01217545
0.006160282
0.006648111
0.007903291
0.00916826
0.009620823
0.005778544
0.006058792
0.005978017
0.005352975
0.005570106
0.005035599
0.004229962
0.00303183
0.004172106
0.008406696
0.01452337
0.02119382
0.02291274
0.0154403
0.007430369
0.004579066
0.0100504
0.01929871
0.02809114
0.02894116
0.02352256
0.01804179
0.01337327
0.005183397
0.00962286
0.01197775
0.01364834
0.01469568
0.01551777
0.01612779
0.01618014
0.01498739
0.007086683
0.006766565
0.008358026
0.01043235
0.01215709
0.008160081
0.009050874
0.008334186
0.007519995
0.007753028
0.007173892
0.006618915
0.005126528
0.005196213
0.008584119
0.005977181
0.005112662
0.006127824
0.01107785
0.008447316
0.01503951
0.02299828
0.02639822
0.0194967
0.01094995
0.008850604
0.00510588
0.009967792
0.01953434
0.02979783
0.03236595
0.02823488
0.02333139
0.01957121
0.015836
0.005768274
0.009745078
0.01227126
0.01416166
0.01542951
0.01648717
0.01764417
0.01859247
0.01937151
0.01907409
0.00840341
0.006775116
0.008580976
0.01128877
0.01412041
0.01011036
0.01173835
0.01023422
0.009330017
0.009500264
0.007530541
0.008365729
0.00619485
0.006361601
0.00990998
0.009042317
0.008105124
0.01183223
0.009545378
0.008580672
0.007120029
0.006369353
0.008812209
0.00781271
0.007415128
0.009375601
0.007713348
0.009885533
0.006197057
0.0054964
0.008383979
0.01521772
0.02407188
0.02916767
0.02360542
0.01479869
0.01139764
0.01132316
0.005426778
0.009836655
0.01947536
0.03095959
0.03525737
0.03249322
0.02792594
0.02463969
0.02251045
0.01889714
0.00687011
0.009843453
0.01254532
0.01460341
0.01602384
0.01721031
0.01862114
0.02006334
0.02169332
0.02364347
0.0250838
0.01023739
0.006708336
0.00862877
0.01178989
0.01560317
0.01163577
0.01421923
0.01172424
0.01073212
0.01085706
0.008308835
0.01032846
0.007187063
0.007352875
0.007891018
0.008100462
0.007818123
0.009052148
0.008965679
0.008991709
0.006304167
0.006228904
0.01119692
0.01101541
0.005071997
0.005846798
0.01106883
0.005220364
0.004665306
0.008970067
0.007888536
0.007950877
0.007964984
0.01007153
0.01026517
0.008665188
0.008909737
0.0102444
0.01032833
0.007145296
0.006115005
0.005645481
0.008268391
0.0151606
0.02461693
0.03130316
0.02782019
0.01872264
0.01389967
0.01331899
0.01395858
0.006250414
0.00969876
0.0192794
0.03169302
0.0376721
0.03614926
0.03194889
0.02869329
0.02742052
0.02617583
0.02210116
0.009185623
0.00987157
0.01277978
0.01506466
0.01658956
0.01781936
0.01927356
0.0210009
0.02298893
0.02563814
0.02955963
0.03407169
0.01249111
0.006600002
0.008564792
0.01203149
0.01668443
0.01282468
0.01646873
0.01288187
0.01182019
0.01189811
0.009077942
0.01238739
0.008039987
0.00819144
0.007785344
0.008336172
0.007792223
0.008953981
0.008953697
0.009921969
0.006224811
0.006224163
0.00484521
0.007700815
0.008814443
0.00480551
0.005233318
0.005142879
0.01020096
0.004597733
0.004585542
0.01009235
0.01311462
0.01326217
0.004843797
0.005480157
0.01364361
0.00519228
0.004552924
0.008972908
0.008157247
0.008040028
0.008159344
0.01061734
0.01065937
0.00904493
0.009069649
0.01049179
0.01050636
0.007215299
0.005209342
0.004808508
0.005464351
0.006604526
0.006027962
0.006217765
0.00813452
0.01498075
0.02481413
0.03283606
0.03174419
0.02289626
0.0164144
0.01470061
0.01538146
0.01648502
0.009202769
0.009537208
0.01900911
0.03215156
0.03965016
0.03943215
0.03564546
0.03193655
0.03085473
0.03097075
0.02997632
0.02647088
0.01269609
0.009761777
0.01286481
0.01545681
0.01724604
0.01846553
0.01984431
0.02168917
0.02380911
0.02663362
0.03090467
0.03821602
0.04991899
0.006474685
0.008444868
0.0121051
0.01743912
0.01372327
0.01850768
0.01376374
0.01263674
0.0126834
0.00988735
0.01458724
0.008774658
0.008908163
0.007815381
0.008768729
0.007860937
0.009017104
0.009054039
0.01116309
0.006240893
0.006268941
0.004780426
0.007409304
0.008468976
0.004768543
0.005085218
0.005069422
0.01002618
0.004573807
0.00456586
0.004562335
0.005252552
0.008279496
0.009708512
0.004513365
0.004727601
0.004613244
0.01152455
0.004473832
0.004460163
0.01041277
0.01231146
0.01544776
0.01579064
0.01592898
0.004517526
0.008950936
0.008192814
0.00803664
0.008194492
0.01075629
0.01077121
0.009073698
0.009060489
0.01050968
0.01049348
0.005214998
0.004790222
0.007257533
0.005214224
0.004774304
0.005456653
0.005453859
0.006642425
0.004506677
0.004675537
0.006324574
0.0065672
0.009876324
0.007982319
0.01474296
0.02484439
0.0339001
0.03509677
0.02743749
0.0191038
0.01587781
0.01586813
0.01735471
0.02157704
0.0146758
0.009304552
0.01860352
0.03232232
0.04126929
0.04234396
0.03915194
0.03476535
0.03316216
0.03383534
0.0347734
0.03291267
0.02576594
0.02451529
0.03478416
0.03008826
0.008957156
0.05064123
0.04981151
0.01019424
0.01392451
0.01492794
0.009466777
0.01269248
0.01557699
0.01777612
0.01931512
0.02054791
0.02233056
0.02449184
0.02732038
0.03149693
0.03840629
0.05311976
0.06369263
0.05765127
0.08601739
0.09166809
0.1208158
0.006338458
0.008305452
0.01211235
0.01799122
0.01437422
0.02030894
0.01441311
0.01323275
0.01327082
0.01076848
0.01693627
0.009403841
0.009522931
0.007897997
0.009301449
0.007975981
0.009149449
0.009219435
0.01268247
0.006287331
0.006339604
0.004752168
0.007404485
0.008609326
0.004742413
0.005040946
0.005032314
0.01043741
0.004553458
0.004544294
0.004491186
0.004810842
0.007612446
0.008664987
0.004478564
0.004562793
0.004544499
0.01033625
0.004451623
0.004444852
0.005148043
0.006150083
0.004554715
0.00914826
0.01078218
0.004454694
0.01268514
0.004428637
0.004413631
0.01065092
0.01265826
0.01511977
0.01820668
0.01826361
0.02139472
0.004495967
0.009000949
0.008215489
0.008018581
0.008260259
0.01085675
0.01090473
0.009046153
0.009028851
0.01047537
0.0104568
0.005209438
0.00476906
0.007250346
0.005203946
0.004767385
0.005467819
0.005483901
0.004472635
0.006670291
0.00448147
0.004450983
0.004627896
0.004614977
0.006419875
0.006944251
0.01076438
0.01639845
0.007787697
0.01443868
0.02477965
0.03472043
0.03781845
0.03257413
0.02217366
0.01705841
0.01620333
0.0170872
0.01953728
0.02367493
0.02366625
0.0255709
0.024565
0.01137848
0.04708662
0.04352299
0.01202346
0.01537602
0.01578698
0.00896247
0.01796839
0.03201524
0.04233007
0.04485861
0.04236325
0.03764425
0.03493544
0.03532652
0.0370902
0.03649977
0.03911554
0.03121347
0.04232856
0.03176578
0.05595172
0.1151378
0.09522013
0.008975017
0.01221947
0.01528292
0.01785364
0.01991591
0.02162725
0.02311068
0.02527869
0.02804417
0.03211353
0.03857825
0.0509583
0.08179237
0.05350343
0.05149914
0.1087453
0.07308153
0.09915888
0.1566063
0.006182272
0.008156555
0.01210424
0.01848543
0.01485799
0.02192254
0.0149019
0.01368654
0.01373135
0.01174912
0.01947787
0.009941373
0.01005964
0.008044495
0.009964445
0.008157564
0.009370827
0.009480977
0.01454789
0.006368739
0.006444765
0.004725213
0.007458595
0.008909118
0.004716417
0.005004593
0.00499852
0.01119178
0.004530621
0.004521281
0.004464833
0.004737089
0.007538184
0.008523533
0.004453402
0.004521786
0.004509941
0.01009408
0.004436206
0.004427978
0.004435187
0.004663777
0.005272288
0.004504039
0.004487734
0.007883232
0.008934384
0.004424554
0.01065327
0.004407004
0.004402003
0.005198881
0.006040584
0.004500515
0.004484045
0.007487383
0.01046402
0.0120218
0.004418311
0.01461744
0.004403279
0.004387648
0.01103998
0.01308861
0.01551456
0.01837872
0.02112823
0.02498891
0.02424083
0.02574265
0.0242816
0.02564466
0.009058402
0.008389935
0.008053008
0.00852274
0.01119045
0.01132934
0.009072562
0.00905354
0.01052135
0.0105193
0.005207199
0.004783819
0.007237585
0.005213149
0.004812077
0.005548546
0.005619933
0.004471367
0.004437562
0.006692588
0.004464925
0.004432761
0.004601634
0.004608374
0.006590145
0.004386054
0.004395129
0.007359955
0.01166873
0.01850248
0.01325341
0.04122802
0.04074345
0.01407766
0.01646958
0.01735514
0.007528644
0.0140077
0.02458828
0.03532154
0.04007213
0.03691259
0.0258148
0.01851304
0.01654221
0.01682133
0.01824715
0.02310679
0.02075791
0.02236839
0.01976717
0.04930249
0.04282278
0.08490254
0.07672113
0.008503422
0.01709169
0.03102752
0.04243775
0.04645943
0.04514916
0.04067098
0.03681039
0.03623826
0.03782145
0.03780834
0.0441676
0.03268272
0.04532814
0.0330976
0.04764734
0.04451955
0.1259515
0.008294491
0.01146077
0.01455862
0.01733016
0.01980066
0.02219824
0.02453449
0.02640413
0.02904703
0.03300678
0.03935288
0.0510121
0.06798299
0.05190286
0.05282177
0.09574164
0.06611999
0.09625948
0.1392363
0.1304694
0.006001136
0.007986756
0.0120981
0.01903985
0.01528962
0.02341426
0.01534598
0.01411737
0.01417935
0.01295828
0.02257955
0.01043916
0.01058383
0.008274216
0.01082159
0.008430641
0.009716954
0.009882281
0.01689368
0.00649381
0.006595584
0.004701725
0.007576975
0.009359235
0.004696483
0.004975743
0.004975675
0.01228858
0.004508487
0.004500655
0.004438615
0.004697607
0.007567503
0.008634953
0.0044265
0.004488307
0.004476452
0.01029261
0.004418017
0.004408874
0.004415072
0.004590059
0.005138348
0.004468033
0.004459258
0.007700078
0.008530852
0.004406516
0.01000294
0.004396425
0.004390818
0.004400147
0.004658101
0.005058045
0.004452735
0.004435294
0.004436894
0.004420139
0.005975347
0.008412558
0.009422344
0.004391041
0.01180766
0.004382124
0.004378502
0.005414437
0.006226102
0.004463246
0.00446651
0.007398875
0.009334943
0.01237275
0.01472078
0.01829651
0.01878154
0.01716411
0.01778105
0.004370146
0.01217203
0.0139097
0.01621665
0.01878921
0.02189152
0.02941571
0.02836674
0.03086258
0.02822857
0.03073359
0.03808643
0.03703975
0.009271391
0.008760712
0.008140376
0.01025472
0.01212732
0.01403452
0.009071666
0.008916877
0.01060885
0.01053722
0.005249973
0.004891024
0.007280855
0.005288709
0.00503975
0.005850888
0.006145825
0.004465727
0.004441143
0.006774926
0.004471784
0.004463995
0.004642688
0.004693135
0.004374337
0.004379761
0.006979877
0.004367346
0.004373846
0.00811822
0.00437761
0.01172292
0.01888444
0.01556554
0.04102409
0.03729692
0.01680918
0.01883112
0.02094835
0.06814247
0.05922745
0.007197351
0.01344678
0.02416295
0.03565008
0.04169941
0.04047325
0.03004854
0.02048757
0.01706748
0.01667073
0.01759984
0.02140039
0.018291
0.02116016
0.01792068
0.03968769
0.03395549
0.03672796
0.0318761
0.1090105
0.09314485
0.007929794
0.01597772
0.0293941
0.04127914
0.04647995
0.0465638
0.04328248
0.03891069
0.03732911
0.03803135
0.03772288
0.04591992
0.03338674
0.04594194
0.03333758
0.04409752
0.0446067
0.1081308
0.101469
0.007418999
0.01047018
0.0134586
0.01625673
0.01888472
0.02168196
0.02491328
0.028462
0.03061213
0.0343655
0.0406694
0.05267468
0.06673902
0.05395075
0.05484485
0.09849146
0.06859104
0.1013972
0.1298165
0.1322733
0.005807072
0.007812295
0.01206711
0.01979706
0.01577749
0.02492611
0.01585977
0.01464497
0.01475055
0.01451696
0.02528696
0.01098537
0.01116997
0.008657297
0.0122446
0.008888679
0.01029486
0.01055432
0.01999679
0.006697701
0.006851032
0.00468824
0.007799711
0.01003954
0.004690527
0.004964605
0.004976628
0.01385264
0.004490942
0.004486751
0.004411956
0.00466367
0.007662291
0.008895593
0.004400685
0.004456341
0.004446345
0.0107861
0.004398622
0.004389597
0.004396757
0.004564673
0.005100603
0.004441028
0.004432285
0.007712879
0.008529394
0.004387904
0.00992832
0.004384621
0.004378676
0.004384331
0.004576302
0.004902932
0.004422446
0.004406729
0.004415572
0.004401536
0.005754072
0.00810465
0.008859716
0.00437848
0.0110928
0.004374993
0.004371484
0.004791247
0.005100122
0.004413024
0.004414629
0.004397272
0.004399154
0.005674071
0.004369546
0.006988675
0.009580113
0.01152756
0.01499609
0.0154754
0.01461185
0.01514447
0.004365362
0.004362725
0.0062215
0.006711725
0.004491184
0.004535651
0.007799499
0.009247714
0.01179661
0.01656993
0.01997206
0.02244991
0.01906376
0.02164016
0.02983222
0.02988853
0.02840706
0.02904147
0.004358466
0.01785224
0.01626225
0.0176641
0.01989925
0.02234157
0.03084229
0.03458876
0.03783574
0.03521026
0.07673528
0.06061468
0.008337588
0.02046111
0.008048107
0.009394925
0.007790546
0.01277509
0.009764665
0.005426264
0.005430511
0.007592832
0.00574715
0.007423987
0.007161459
0.01025878
0.004498756
0.004528531
0.007160378
0.004548949
0.004657791
0.004851807
0.00509376
0.00436655
0.004379762
0.00794793
0.00437289
0.004400464
0.004362411
0.009572614
0.004351899
0.00435683
0.01222073
0.01773488
0.04988
0.0356083
0.00684739
0.01265062
0.02369693
0.03560855
0.04253181
0.04287817
0.03435458
0.02294927
0.01797156
0.01674202
0.017268
0.02079934
0.01750629
0.02066392
0.01741468
0.03544854
0.03035004
0.03535989
0.03011562
0.09116187
0.0775049
0.08650456
0.07482143
0.007229849
0.01475614
0.02695195
0.03898904
0.04457924
0.0457504
0.04387864
0.04085183
0.03865417
0.03851639
0.0374348
0.04592394
0.03314087
0.04561643
0.03292428
0.04527101
0.04584629
0.1006538
0.1024219
0.006185003
0.009330809
0.01208416
0.01475725
0.01734671
0.02019084
0.02371026
0.02831473
0.03378176
0.03655197
0.04260293
0.05499755
0.07078911
0.05567585
0.05643056
0.1046177
0.07306153
0.1078251
0.1358963
0.1399193
0.005650314
0.007629109
0.01206452
0.02092825
0.0164517
0.02670633
0.01658015
0.01543297
0.01565157
0.016327
0.02785132
0.01165031
0.01191087
0.009290791
0.01491778
0.00958504
0.01125827
0.0115827
0.02345879
0.007033147
0.007225317
0.004696955
0.008234755
0.01129468
0.004714636
0.004992255
0.005028417
0.01607773
0.004484161
0.004488233
0.004388299
0.004643267
0.007866994
0.009367359
0.004380101
0.004431221
0.004426259
0.01162447
0.004380149
0.004372474
0.004378478
0.004548758
0.005077125
0.004414619
0.004407068
0.007790479
0.008677528
0.00437049
0.01012088
0.004372601
0.004367163
0.00437248
0.004556682
0.004872209
0.004405282
0.004393163
0.004399146
0.004389228
0.005740953
0.008148919
0.0088722
0.004367017
0.01106999
0.004367892
0.00436447
0.004364579
0.004688498
0.00490966
0.004386208
0.004388103
0.004381829
0.00438447
0.005388129
0.004360603
0.006665468
0.009242867
0.011128
0.01423899
0.0149069
0.01422321
0.01495216
0.004360541
0.004358481
0.00540111
0.005375796
0.004434385
0.004473951
0.004417436
0.00445551
0.005774275
0.004355135
0.004350175
0.006518624
0.008621895
0.01327586
0.0165587
0.01900457
0.01630007
0.01881877
0.02659845
0.0271381
0.02634794
0.0269165
0.00435432
0.004352525
0.01070461
0.008429778
0.004672839
0.004897941
0.008749464
0.009940361
0.01148488
0.01631867
0.02610777
0.03168314
0.02952799
0.03106441
0.02889395
0.06414327
0.05079338
0.06265413
0.04975893
0.02673319
0.02510676
0.02150825
0.02243887
0.02440509
0.02885715
0.03810807
0.04321918
0.05528457
0.0303249
0.03683197
0.04497805
0.02806681
0.007829863
0.008024818
0.02281349
0.008527908
0.01455008
0.0095344
0.009155523
0.009341813
0.009020177
0.009333558
0.004716774
0.005006337
0.009612385
0.00519502
0.006549851
0.005909761
0.008247618
0.004398185
0.004458108
0.0102521
0.004451481
0.004577431
0.004351386
0.004362258
0.01195485
0.004358527
0.004382211
0.01438919
0.004348488
0.01938876
0.006416092
0.01199633
0.02229217
0.03594414
0.04240583
0.04372934
0.0368677
0.02555095
0.01924161
0.01717275
0.01722351
0.02051151
0.01736473
0.02044532
0.01738538
0.03556024
0.03025411
0.03593311
0.03061305
0.08522628
0.07340028
0.08623049
0.07407436
0.006402836
0.01378147
0.02392703
0.03520121
0.04107076
0.04254877
0.04185113
0.04010034
0.03965115
0.03920349
0.03775813
0.04564149
0.03278611
0.04552115
0.03271428
0.04631944
0.04673844
0.1051803
0.1082184
0.004952467
0.008176402
0.01057364
0.0129897
0.01542235
0.01810229
0.02144768
0.02599212
0.03241675
0.0415949
0.0457145
0.05783644
0.07514267
0.05731109
0.05823987
0.1109983
0.07716185
0.1139994
0.1445056
0.1490007
0.00548676
0.007915002
0.004926094
0.006495547
0.006616059
0.01148013
0.02339401
0.01742926
0.02884038
0.01762148
0.01685059
0.01747451
0.01842145
0.03047101
0.01250008
0.01286353
0.01001556
0.01807743
0.0102874
0.01230608
0.01247325
0.02675955
0.007456728
0.007654078
0.004748489
0.009041197
0.013751
0.004797549
0.00509294
0.005174801
0.01887033
0.004500004
0.004521583
0.004373515
0.004659193
0.008304373
0.01031748
0.004373298
0.004423541
0.004430918
0.01292577
0.004365614
0.004361892
0.004362834
0.004545914
0.005075616
0.004392311
0.00438831
0.007965562
0.00899158
0.004357602
0.01055204
0.004362141
0.004358365
0.004361902
0.004552232
0.004863096
0.004391135
0.004383593
0.004386502
0.004381408
0.005759127
0.008263855
0.009031692
0.00435771
0.01125468
0.004361321
0.004358685
0.004356986
0.004665672
0.004876749
0.00437777
0.004380966
0.004375267
0.004379496
0.005363453
0.004353898
0.006723843
0.009437228
0.01140169
0.01436335
0.01522483
0.01446031
0.01536711
0.004356571
0.004354913
0.00435141
0.005207472
0.005125655
0.004406943
0.004442468
0.004403276
0.004437731
0.005395468
0.004347415
0.004348923
0.004345909
0.006032509
0.008272198
0.01329234
0.01631312
0.01905328
0.01641476
0.01915498
0.02657594
0.02730469
0.02696448
0.02768855
0.004351367
0.004350438
0.00881984
0.006573912
0.004592789
0.004793429
0.004566982
0.00475454
0.006259379
0.004355865
0.004375352
0.006675607
0.004347453
0.007660496
0.01244304
0.02300947
0.02889723
0.02643904
0.02870614
0.02626101
0.06111811
0.04817089
0.06158341
0.04844345
0.02094104
0.01599248
0.005645417
0.007860212
0.01189435
0.01164406
0.01250826
0.01406873
0.02550462
0.01994307
0.02075508
0.0182781
0.0181541
0.03672684
0.02137992
0.03549508
0.0202025
0.02908994
0.03377138
0.03374481
0.02871867
0.02940802
0.03139332
0.03270709
0.03262262
0.03202422
0.03012972
0.07365369
0.07771295
0.04392398
0.1041661
0.04815949
0.06620486
0.006695373
0.007463949
0.01307177
0.01519003
0.02242929
0.01875347
0.008528221
0.02402552
0.00841956
0.0198793
0.02380738
0.02042764
0.009371895
0.01152885
0.006330162
0.007893657
0.009577707
0.007808644
0.009937495
0.01136375
0.004616399
0.004888001
0.0132353
0.00504977
0.004383486
0.00443574
0.0149024
0.004435353
0.004546195
0.004348537
0.01716934
0.004356305
0.02203315
0.01174743
0.06786655
0.01299037
0.02052059
0.02101277
0.005743045
0.01206841
0.005512451
0.00702186
0.00545245
0.006964324
0.007627712
0.02126653
0.0350937
0.04248931
0.04272977
0.03718506
0.02723427
0.02054444
0.01795066
0.01759042
0.02048058
0.01750173
0.02051363
0.01757441
0.0363769
0.03112429
0.03680357
0.03158015
0.08829247
0.0757616
0.09063444
0.0776357
0.007650939
0.01372094
0.005988353
0.008256642
0.02074725
0.03008135
0.03603715
0.03736993
0.03765727
0.03673957
0.03646247
0.03941744
0.03857834
0.04597111
0.03304022
0.04632339
0.03330261
0.04722392
0.04771019
0.1115551
0.114669
0.004714122
0.007280189
0.009141968
0.01115375
0.01333425
0.01576809
0.01876394
0.02271342
0.02836947
0.03733458
0.05437374
0.06233868
0.079009
0.05953097
0.06105696
0.1169646
0.08092932
0.1199524
0.1536749
0.1580388
0.009911417
0.01223709
0.008960473
0.01121024
0.01023552
0.004094032
0.004820082
0.00786096
0.005358895
0.0188308
0.01940392
0.03148473
0.02029985
0.01998197
0.01959228
0.02065545
0.03292584
0.01383632
0.01462929
0.01053451
0.02131928
0.01066586
0.01312141
0.01333152
0.02944588
0.007659227
0.007614818
0.004942858
0.01012934
0.01764783
0.005123877
0.00542588
0.005712939
0.02176904
0.004583043
0.004666618
0.00438103
0.004754942
0.009165654
0.01222062
0.004403185
0.004456091
0.004499139
0.01468252
0.004362084
0.004369724
0.004354823
0.004573396
0.005133249
0.004382262
0.004387512
0.008358843
0.009657658
0.00435675
0.01130144
0.004356137
0.004356659
0.004354706
0.004563773
0.004875376
0.004382812
0.00438034
0.004381663
0.004381691
0.005809435
0.008455712
0.009298448
0.004353513
0.01156801
0.004356812
0.004356071
0.004351605
0.004665353
0.004876992
0.004375215
0.004380277
0.004374833
0.00438108
0.005385607
0.004350163
0.006835791
0.009692151
0.01173914
0.01469298
0.01567076
0.01479488
0.01578847
0.004353723
0.004353117
0.004347107
0.00513353
0.005079326
0.004401936
0.004434875
0.004400939
0.004433233
0.005351759
0.004345288
0.004345927
0.004345285
0.006028037
0.008499594
0.01390487
0.01690877
0.01987427
0.01708604
0.02003393
0.02760085
0.0284291
0.0280718
0.02886818
0.004349779
0.004349455
0.008060534
0.006120066
0.00454633
0.004715616
0.004537827
0.004697932
0.00574253
0.004353636
0.004372883
0.004352792
0.004371824
0.005978242
0.00434713
0.004347043
0.0069327
0.0123763
0.02362518
0.02932898
0.02692269
0.02970191
0.02716812
0.06297117
0.04951467
0.06439847
0.05047343
0.01618559
0.01220081
0.005430425
0.007122263
0.005342901
0.006934105
0.008398931
0.004425989
0.004528847
0.007525976
0.00434813
0.004356298
0.007789943
0.009172952
0.02235501
0.01674972
0.01655429
0.01675124
0.01657155
0.03387201
0.0186897
0.03396311
0.01861977
0.02975253
0.02888114
0.02318227
0.0168251
0.01552784
0.01534455
0.01830307
0.01700891
0.01609745
0.01447123
0.02258683
0.02253771
0.01862892
0.02759635
0.01829943
0.02038702
0.03064108
0.03552278
0.04149024
0.04422155
0.04012342
0.03890751
0.03583895
0.03777944
0.03259378
0.03504229
0.04559959
0.1468173
0.09774156
0.005254901
0.006602209
0.009519875
0.00744509
0.01871905
0.01392653
0.01837732
0.009977376
0.02882421
0.008833848
0.0269532
0.008534985
0.01583237
0.02194542
0.0197475
0.01882654
0.02007655
0.009941969
0.01045697
0.005935927
0.005815455
0.007315937
0.009635007
0.007311846
0.009377665
0.004969537
0.01291199
0.004586762
0.004820375
0.01631382
0.004380899
0.0199104
0.004430588
0.02336398
0.0141064
0.07174866
0.07007604
0.01408978
0.02109342
0.02063921
0.1209378
0.01271722
0.02181135
0.0112427
0.01329517
0.01274308
0.01459691
0.01548233
0.005111657
0.008918708
0.005661714
0.009560782
0.03393589
0.04231958
0.04033058
0.03551467
0.02732876
0.02105045
0.01882778
0.01841848
0.02084233
0.01788485
0.02103843
0.01802442
0.03731482
0.03210445
0.03775631
0.03250316
0.09334343
0.07992815
0.09577951
0.081881
0.007475416
0.009437328
0.01589965
0.008771326
0.01300744
0.01683881
0.01826343
0.01454316
0.01712993
0.0242511
0.02953764
0.03107333
0.03208462
0.03202623
0.03147387
0.03281427
0.03907209
0.04735257
0.03414537
0.04840021
0.03481954
0.04853362
0.04935197
0.11777
0.1205042
0.004349185
0.006733278
0.00811255
0.009552453
0.01133216
0.01346245
0.01607173
0.01937918
0.02389126
0.03058268
0.04364002
0.07944978
0.08308037
0.06326884
0.067246
0.1237334
0.08636467
0.1297805
0.1625589
0.167097
0.0169291
0.02034275
0.01383623
0.02007611
0.01681738
0.006703871
0.0114109
0.01410672
0.007843963
0.003989718
0.004751596
0.005562538
0.01067181
0.03258795
0.02540852
0.03540235
0.01639171
0.01597554
0.01276623
0.02485166
0.01491186
0.01649153
0.01874411
0.03141229
0.0082583
0.009378469
0.00543404
0.01213484
0.02203251
0.00584918
0.00628917
0.006927982
0.02415706
0.00482722
0.005063293
0.004461988
0.005073716
0.01042962
0.01528091
0.004569152
0.004619516
0.004792419
0.01651556
0.004393664
0.004444109
0.004366178
0.004669232
0.005310122
0.004402217
0.004432133
0.009151491
0.01099781
0.004386932
0.01248109
0.004361654
0.004373718
0.004355643
0.004606685
0.00493723
0.004388182
0.004390877
0.00439589
0.004400784
0.005949361
0.008843658
0.009810124
0.004361808
0.0121294
0.004357222
0.004361049
0.00435036
0.004684128
0.004902912
0.004380512
0.004387758
0.004383869
0.004392337
0.005442484
0.004352244
0.00698959
0.009981734
0.01205771
0.01506678
0.01606009
0.01515999
0.01612728
0.004353471
0.004355037
0.004345803
0.005102702
0.00508268
0.004404668
0.004436082
0.004406082
0.004437147
0.005378817
0.004346519
0.004346573
0.004348602
0.006112142
0.008774311
0.01445509
0.01750057
0.02059791
0.01762925
0.02071142
0.02862101
0.02942662
0.02896932
0.02971162
0.004349698
0.004350594
0.007696615
0.00597678
0.004530996
0.004679926
0.00452706
0.004669921
0.005669212
0.004352978
0.004371944
0.004353811
0.004372715
0.005913771
0.00434728
0.00434787
0.006962422
0.01297992
0.02486073
0.03063068
0.02819656
0.03103646
0.02848594
0.06628337
0.05192086
0.067764
0.05292848
0.01393928
0.010778
0.00523657
0.006604391
0.00519348
0.0065318
0.007460102
0.004421174
0.004516655
0.004418406
0.004508953
0.006513383
0.004348436
0.004356928
0.004348966
0.004357696
0.006635528
0.008246667
0.02279037
0.01700187
0.01682043
0.01706257
0.01690394
0.03469645
0.01890873
0.03521856
0.01902014
0.02600535
0.0224152
0.016762
0.004775498
0.01107112
0.004380378
0.004427057
0.009303656
0.009011115
0.01218447
0.01029899
0.01162098
0.009650939
0.01641476
0.01523616
0.01461314
0.01735799
0.01645904
0.01742877
0.03506248
0.03760465
0.0372216
0.03255312
0.0240931
0.02073767
0.01831121
0.01980777
0.01530978
0.01636702
0.02156212
0.01592627
0.04413441
0.03208727
0.03673469
0.03626753
0.04028905
0.0486939
0.05624535
0.04974177
0.04228268
0.04580826
0.0410088
0.0458486
0.05097006
0.0544312
0.09030819
0.003898912
0.005809272
0.005841453
0.004561304
0.01484298
0.009466334
0.004308645
0.02471592
0.005031116
0.005429001
0.01060538
0.02210074
0.01144076
0.02055462
0.0114151
0.03830673
0.009265156
0.006017279
0.01077394
0.03688663
0.008217257
0.02643656
0.008496248
0.01392832
0.01573435
0.02015704
0.01427161
0.02137514
0.01047062
0.02266314
0.01088991
0.01020534
0.005646839
0.005605555
0.007197406
0.009278503
0.00719962
0.00935361
0.004910897
0.004859004
0.01531287
0.004569568
0.01994106
0.02350725
0.01569403
0.06792585
0.06472702
0.01623347
0.02063941
0.02114875
0.1086721
0.09916345
0.02057323
0.03214635
0.02024467
0.024462
0.02298431
0.02259873
0.02639574
0.01389032
0.01784017
0.01575056
0.0205659
0.005337871
0.01146508
0.00778289
0.01961926
0.03919854
0.03619853
0.03212078
0.02591967
0.02061042
0.01827572
0.01969881
0.02175804
0.01862081
0.02221424
0.01890417
0.03845502
0.03306018
0.03903476
0.03342866
0.09820134
0.08384186
0.1002005
0.08535529
0.01071733
0.009541311
0.01898013
0.01202157
0.019268
0.01733404
0.01888527
0.01828052
0.02477439
0.02122315
0.02666228
0.0107913
0.03262718
0.01938587
0.02202015
0.02359214
0.02277847
0.02468612
0.02621857
0.02686009
0.02658039
0.02683256
0.02890623
0.05225626
0.036322
0.06318679
0.03604851
0.05080317
0.05265474
0.1232434
0.1257662
0.003881937
0.00617842
0.007597719
0.008549353
0.009764021
0.0114314
0.01361549
0.01635562
0.01989334
0.02465977
0.03285776
0.05276645
0.09315313
0.07831235
0.1386078
0.1444096
0.08876139
0.1511426
0.1732614
0.1835363
0.02931628
0.0353625
0.02738448
0.03451468
0.03419629
0.009791506
0.01947183
0.02505042
0.01221694
0.007264783
0.0159683
0.00881293
0.02088588
0.004080347
0.005038523
0.006820681
0.01535861
0.02848696
0.03701098
0.02203409
0.02934954
0.03213929
0.01208821
0.0125852
0.007192715
0.01834387
0.02590687
0.01042695
0.00941742
0.01377349
0.02521076
0.005698707
0.007070417
0.004791326
0.006298871
0.01328033
0.01922159
0.005231257
0.005148355
0.005775065
0.01789683
0.004564054
0.004815858
0.004433865
0.004939052
0.005719678
0.00451097
0.004630511
0.01034246
0.01308024
0.004519273
0.01379724
0.004400643
0.004451474
0.004376504
0.004714844
0.005110285
0.004425345
0.00443253
0.00445659
0.004464314
0.006262648
0.009616925
0.01090871
0.004401774
0.01351448
0.004369712
0.004385428
0.004357964
0.004733804
0.00497826
0.004400994
0.004410405
0.004412903
0.004423165
0.005581317
0.004367491
0.007280429
0.01043266
0.01252426
0.01558331
0.01647182
0.01574102
0.01653662
0.004358726
0.004365177
0.004349256
0.0051023
0.005118914
0.004415973
0.004446482
0.004421102
0.00445112
0.00544867
0.004352778
0.00435359
0.004358486
0.006249151
0.009069545
0.01490764
0.01788513
0.02100862
0.01793054
0.02104099
0.02939039
0.03003467
0.02958468
0.03010361
0.004352544
0.004355764
0.007512888
0.005925069
0.004527644
0.004663525
0.004527109
0.004658608
0.00569833
0.004355983
0.004374961
0.004358932
0.004377902
0.005989485
0.004349076
0.004350951
0.007124332
0.01350899
0.0258245
0.03167563
0.02921969
0.03191541
0.02939675
0.06929636
0.05405661
0.07038893
0.05478336
0.01304032
0.01017544
0.005136939
0.006395523
0.005112325
0.0063662
0.007230861
0.004416984
0.004502584
0.004416609
0.004498856
0.006372848
0.004349827
0.004358781
0.00435104
0.004360184
0.006514477
0.008325466
0.0240917
0.01759192
0.01744569
0.01775479
0.01763661
0.03623284
0.01955889
0.03681858
0.01977156
0.02291098
0.01875535
0.01419575
0.004739361
0.004718345
0.009321879
0.004380489
0.00442463
0.004380774
0.004422786
0.007532507
0.007314549
0.01113204
0.008892692
0.01118597
0.00883359
0.01669872
0.01486619
0.01586274
0.01777982
0.01684478
0.01816725
0.03444501
0.0341154
0.02947228
0.02326061
0.004554561
0.01514627
0.011776
0.01006979
0.01053546
0.009238951
0.009550076
0.01160852
0.01075013
0.02688533
0.02669699
0.04636676
0.04201086
0.04270024
0.04493125
0.04554825
0.0360237