/*--------------------------------*- C++ -*----------------------------------*\
  =========                 |
  \\      /  F ield         | OpenFOAM: The Open Source CFD Toolbox
   \\    /   O peration     | Website:  https://openfoam.org
    \\  /    A nd           | Version:  8
     \\/     M anipulation  |
\*---------------------------------------------------------------------------*/
FoamFile
{
    version     2.0;
    format      ascii;
    class       volScalarField;
    location    "1000";
    object      nut;
}
// * * * * * * * * * * * * * * * * * * * * * * * * * * * * * * * * * * * * * //

dimensions      [0 2 -1 0 0 0 0];

internalField   nonuniform List<scalar> 
60977
(
0.0008066363
0.0008177013
0.001067718
0.0008555694
0.0008059647
0.00112218
0.0008041731
0.001209854
0.001175222
0.0009030974
0.0007950725
0.00105901
0.0007953709
0.001303595
0.00199753
0.0008591247
0.001297987
0.001345245
0.001267613
0.0009400853
0.0009997228
0.0007991595
0.001202126
0.001783933
0.0008049364
0.001413066
0.002644331
0.002748593
0.0008687284
0.001359542
0.001460364
0.001457898
0.001349892
0.0009772799
0.001099914
0.001220815
0.0008166836
0.001295707
0.002332328
0.002400026
0.0008160671
0.001480102
0.003036332
0.003677421
0.002842858
0.0008767527
0.001402295
0.001539966
0.001588159
0.001551361
0.001432085
0.001024843
0.001169252
0.001357296
0.001353984
0.0008463152
0.001352824
0.00270611
0.00333151
0.002934468
0.0008079695
0.001519837
0.003279972
0.004240646
0.003930193
0.002568786
0.0009284731
0.001431028
0.001595325
0.001677522
0.001688015
0.001651948
0.001530968
0.001082869
0.001212723
0.001463424
0.001536953
0.001645393
0.000263874
0.0008374813
0.0002104686
0.0003443706
0.0002896669
0.001385272
0.002928355
0.003966153
0.004083178
0.002686642
0.00088012
0.001538437
0.003417716
0.004629494
0.004619096
0.003584185
0.002389131
0.001004541
0.001449557
0.001633662
0.001739782
0.001779226
0.001789623
0.001762496
0.001668741
0.001149192
0.001238742
0.001534279
0.00169097
0.002101558
0.0002832359
0.001648198
0.0002874021
0.0004224619
0.0004257641
0.001056786
0.0009622843
0.000357878
0.0004939012
0.00140108
0.003047508
0.004357743
0.004842411
0.003690895
0.00191027
0.0009997846
0.001541701
0.003472147
0.004899151
0.005149039
0.004364007
0.003383102
0.002576983
0.001060561
0.0014615
0.001660455
0.001784138
0.001842046
0.001876288
0.001902192
0.001904963
0.001850589
0.001232727
0.001249369
0.001576852
0.001799724
0.002457484
0.0003343423
0.002198605
0.0003375146
0.0005169246
0.0005240937
0.001083476
0.001651292
0.000571072
0.0005826175
0.001411728
0.001145943
0.001057166
0.0005324879
0.002298619
0.001404354
0.00309364
0.00458156
0.005362578
0.00452262
0.002664978
0.002156933
0.001055615
0.001535278
0.003464802
0.00506894
0.005567373
0.005035248
0.00416446
0.003538533
0.0029309
0.001119377
0.001470749
0.001680687
0.00181736
0.001887561
0.001934179
0.001988862
0.002036456
0.002082441
0.00208769
0.001343159
0.001250088
0.001597333
0.001870874
0.002714979
0.0003716774
0.002651431
0.0003741911
0.0005903429
0.0005941688
0.0009612051
0.001942394
0.0006392774
0.0006490979
0.003588594
0.001819836
0.003766239
0.003702689
0.003873362
0.002125327
0.00336651
0.003609733
0.001432443
0.001312527
0.003696334
0.003799031
0.0005941632
0.002686193
0.001164483
0.001095876
0.001399022
0.003086442
0.004685784
0.005712851
0.005283527
0.003398293
0.002683797
0.00270717
0.001088762
0.001525064
0.003416312
0.005156639
0.005887145
0.005587638
0.004803459
0.004225218
0.003906133
0.00332131
0.001223387
0.001478109
0.001699382
0.001845496
0.001923573
0.001976176
0.00204305
0.002114005
0.002196965
0.002300418
0.002395654
0.001483436
0.001243904
0.001601581
0.001911481
0.002897865
0.0003991456
0.003087134
0.0004008156
0.0006393454
0.0006420848
0.0009535772
0.002259358
0.0006906277
0.0006988779
0.003667878
0.001400017
0.003622779
0.003748793
0.003693035
0.002137251
0.003528049
0.00349711
0.003879764
0.00263034
0.003762327
0.003783792
0.002776388
0.003564601
0.003710975
0.00144579
0.003740496
0.001325334
0.003733223
0.003860434
0.003885373
0.0006276385
0.0006352394
0.002598066
0.002555866
0.001251056
0.001156035
0.001111017
0.001389259
0.00304392
0.004707064
0.005942288
0.005959711
0.004139398
0.003096391
0.003159677
0.003240148
0.001170085
0.001514166
0.003347487
0.00517922
0.006119532
0.00603499
0.005352001
0.004738138
0.0045005
0.004328419
0.00366053
0.001420885
0.001480071
0.001715225
0.001874478
0.001957279
0.002010847
0.002078467
0.002162394
0.002259621
0.002387988
0.002574619
0.002804341
0.001575657
0.00123378
0.001595527
0.00193076
0.003023467
0.0004192915
0.003474279
0.0004202872
0.000672325
0.0006731619
0.0009730493
0.002636649
0.0007310595
0.0007380383
0.003511028
0.001276289
0.003475896
0.00357494
0.003530062
0.002196424
0.003412324
0.003387677
0.003734675
0.003601634
0.001976401
0.003717773
0.003780976
0.003760558
0.002621037
0.003692745
0.00368719
0.003816068
0.004138373
0.003367335
0.003748786
0.003740417
0.003373587
0.003545878
0.003697233
0.001446248
0.003718632
0.001333186
0.003713664
0.003892543
0.003903423
0.0006393021
0.0006399579
0.002503749
0.002494576
0.001257573
0.003535266
0.003730773
0.003729987
0.001201508
0.001147873
0.001167412
0.001377739
0.002983775
0.004673816
0.00606967
0.006454845
0.004930497
0.003518498
0.00332269
0.003663485
0.003636076
0.001426469
0.001501156
0.003270251
0.005156478
0.006269926
0.00639665
0.005850961
0.005149691
0.0048724
0.004851441
0.004704468
0.004029032
0.001658706
0.001471447
0.00172091
0.001898884
0.001995799
0.00204708
0.002109019
0.002197359
0.002298891
0.002431618
0.002624723
0.002941427
0.003405027
0.00122185
0.001584216
0.001936508
0.003106068
0.0004338396
0.003800127
0.0004345054
0.0006927888
0.0006923456
0.00101396
0.003074382
0.0007639966
0.0007698633
0.003390091
0.001239177
0.003364768
0.003442461
0.003409446
0.002372487
0.003318621
0.003298971
0.003694884
0.003460366
0.001691323
0.003683779
0.003719715
0.003701774
0.002429067
0.003677194
0.003671941
0.003726897
0.003686305
0.003697242
0.002636755
0.003707675
0.003773838
0.003757128
0.003165174
0.003678102
0.003671829
0.003804149
0.004102114
0.004404815
0.003935964
0.003773078
0.00368238
0.001444451
0.003710869
0.001333066
0.003710544
0.003903436
0.00390953
0.0006400686
0.0006396343
0.002492959
0.002498385
0.003511784
0.00371196
0.001261487
0.003507857
0.003703893
0.003691815
0.003685682
0.001205095
0.003705799
0.003760982
0.001175483
0.001198884
0.001477945
0.001364235
0.002917724
0.004612077
0.006118807
0.00680364
0.005771658
0.004008454
0.003440029
0.00368015
0.004068468
0.004100501
0.001832715
0.001482172
0.003183424
0.005097503
0.006349252
0.006666598
0.006286341
0.005523781
0.005121043
0.005109713
0.005182553
0.004940051
0.002893827
0.003085953
0.003774831
0.00376828
0.000523714
0.00220085
0.002973163
0.0007000436
0.0004743753
0.0008215779
0.001448358
0.00170907
0.001906546
0.002026657
0.002093945
0.002146236
0.002229598
0.002331331
0.002461949
0.002647429
0.002940891
0.003536808
0.001500706
0.003166968
0.001174047
0.002104483
0.002327326
0.001208414
0.001570917
0.001936819
0.003161606
0.0004440576
0.00406673
0.0004446716
0.0007056597
0.0007047171
0.001073975
0.003558317
0.0007910857
0.0007961467
0.003294361
0.001239281
0.003276355
0.00334037
0.003316145
0.002650386
0.003240973
0.003225403
0.003664145
0.003332246
0.001578377
0.003652606
0.003668398
0.003651097
0.002393922
0.00366195
0.003655678
0.003696769
0.003811814
0.003570585
0.00219854
0.003690624
0.003735091
0.003726147
0.002825978
0.003667776
0.003664684
0.003616082
0.003644043
0.003742915
0.003802372
0.00324123
0.003685044
0.003590077
0.003659382
0.003652384
0.003806276
0.004095747
0.004403622
0.004650993
0.004280826
0.004195375
0.003672002
0.001447886
0.00371318
0.001331567
0.003714953
0.003917275
0.003914196
0.0006391697
0.0006385843
0.002504955
0.002509531
0.003504826
0.003699019
0.001261008
0.003505096
0.003697909
0.003673379
0.003673047
0.003690068
0.001207816
0.003665679
0.003680377
0.003734359
0.003726752
0.001184356
0.001231219
0.001538971
0.001938216
0.001346464
0.002848108
0.004537331
0.006119694
0.007029388
0.006637315
0.004600851
0.003601426
0.003627529
0.00401795
0.004351084
0.003249199
0.003240185
0.003667853
0.003568789
0.0007581476
0.003070678
0.003008682
0.0007832769
0.0009146696
0.0009446915
0.001454119
0.003080195
0.004995135
0.006356673
0.006841928
0.006629504
0.005906569
0.00533161
0.005228908
0.00535274
0.005329307
0.004399524
0.004326517
0.004872146
0.00466725
0.00358006
0.002889148
0.002829283
0.001409216
0.001675745
0.001888789
0.002031952
0.00212696
0.002202295
0.002268412
0.00236844
0.00249398
0.002672382
0.002945227
0.003457563
0.002068859
0.003599437
0.004011074
0.00242188
0.001982107
0.002365245
0.004552688
0.001192222
0.001556552
0.00193541
0.003205424
0.0004514923
0.004287023
0.0004521548
0.0007156735
0.0007147954
0.001153066
0.004095368
0.0008135234
0.000818417
0.003219874
0.001270041
0.003208038
0.003264088
0.003248022
0.003032105
0.0031771
0.003164421
0.003633098
0.003220827
0.001525327
0.003620395
0.003617469
0.003598849
0.002477077
0.003645559
0.003638606
0.00368385
0.003794261
0.003433795
0.001998932
0.003678349
0.003714256
0.003707651
0.002639009
0.003660745
0.003657051
0.003675629
0.00378768
0.003924998
0.003722451
0.003715115
0.003731499
0.002768647
0.00367059
0.00325654
0.003649237
0.003646944
0.003576111
0.003535338
0.003717005
0.003708622
0.003638367
0.003904627
0.003669787
0.003668487
0.003896928
0.003648119
0.003640784
0.003836576
0.004100599
0.004388621
0.004667294
0.004823329
0.004630984
0.003163028
0.002971348
0.003376103
0.003127478
0.001448708
0.003715606
0.001334133
0.003720256
0.003923685
0.00389881
0.0006401044
0.000639199
0.002490206
0.002485253
0.003507786
0.003702987
0.001259969
0.003510059
0.003712111
0.00367766
0.003685152
0.003661325
0.003674135
0.001210013
0.003658762
0.003672024
0.003716893
0.0037177
0.001200359
0.003640491
0.003658041
0.001267527
0.001589398
0.002006198
0.0008234127
0.002923139
0.00282529
0.0008471144
0.0009646335
0.000970638
0.001322845
0.002769828
0.004453616
0.00608667
0.00716232
0.007215077
0.005317998
0.003858656
0.003608585
0.003887428
0.004313898
0.00402149
0.003909282
0.004281306
0.004149996
0.003491673
0.003337772
0.00266889
0.002469445
0.001416388
0.002958507
0.004835827
0.006274946
0.006901608
0.006859638
0.006287858
0.005569784
0.005309141
0.005374502
0.005429061
0.00515632
0.004878094
0.005311438
0.004952817
0.00383196
0.004187132
0.004222587
0.001353501
0.001619314
0.00184313
0.002003493
0.002122256
0.002232028
0.002337735
0.002420805
0.002538056
0.002708868
0.002973942
0.003455674
0.001899233
0.004293759
0.004428205
0.002343458
0.001865133
0.002357911
0.005013377
0.005343978
0.001173236
0.001540282
0.001932859
0.003251345
0.0004579763
0.004466494
0.0004587376
0.0007267929
0.0007258285
0.001263552
0.004714308
0.0008337662
0.0008395655
0.003164449
0.001334231
0.003157094
0.003213212
0.003204678
0.003544761
0.003124499
0.003112223
0.003601039
0.003122451
0.001513473
0.003587625
0.003564063
0.003544347
0.002664987
0.003628832
0.003621699
0.003671181
0.003769266
0.003311753
0.001887831
0.003665317
0.003696193
0.003689411
0.002576354
0.003652546
0.003648427
0.003666152
0.003785049
0.003948612
0.003706425
0.003702104
0.003614225
0.002521922
0.003662228
0.003046799
0.00364444
0.003641927
0.003659615
0.003775657
0.003881411
0.003697705
0.003689239
0.003690767
0.003682617
0.004026741
0.003928438
0.003339086
0.003655243
0.003738058
0.003638091
0.003636395
0.003580371
0.003478464
0.003698565
0.00369953
0.003496913
0.003691198
0.004041174
0.00400948
0.003678912
0.00371334
0.00394004
0.004007137
0.003632961
0.003867322
0.004142723
0.004380569
0.004609747
0.004858468
0.005085779
0.002796677
0.002460221
0.002903461
0.002527932
0.003154465
0.003010412
0.001375603
0.003682898
0.001340138
0.003157974
0.003868519
0.00336048
0.0006388728
0.0006299691
0.002451977
0.002312226
0.003508944
0.00373476
0.001263684
0.003514543
0.003765582
0.003708864
0.003723091
0.003659203
0.003675735
0.001217566
0.003661964
0.003686189
0.003726644
0.003744141
0.003635298
0.003651058
0.001235714
0.003632257
0.00364857
0.001332951
0.003649394
0.001592941
0.001860976
0.000874387
0.002715388
0.002415999
0.0007124151
0.0009186917
0.0005788836
0.002221601
0.001921162
0.001294031
0.002682051
0.004355483
0.006026031
0.007208546
0.007548736
0.00612679
0.004249776
0.003662605
0.003789464
0.004220345
0.004332163
0.004144739
0.004342821
0.004139131
0.003670677
0.003603684
0.003954099
0.003875532
0.003901595
0.003530365
0.001368959
0.00281852
0.004619278
0.006083553
0.006812568
0.006923218
0.006536119
0.005835753
0.005424741
0.00536578
0.005393463
0.005375807
0.004963223
0.005377531
0.004939434
0.00438539
0.004452211
0.004678112
0.004938038
0.001279063
0.001539873
0.001768604
0.001942106
0.002075252
0.002207482
0.002356611
0.002513911
0.002605615
0.002763714
0.003022893
0.003510646
0.001869412
0.004475261
0.004472142
0.002389495
0.001893649
0.002426302
0.005525178
0.005618162
0.001156971
0.001525049
0.00192592
0.003314374
0.0004649667
0.004633726
0.000465777
0.000743335
0.0007420212
0.0014109
0.005132713
0.0008553374
0.0008624189
0.003125533
0.00148794
0.003120303
0.003189747
0.003187807
0.004227649
0.003076731
0.003060535
0.003568588
0.003039139
0.001547038
0.003554785
0.003508092
0.00348727
0.002979761
0.003612715
0.003605849
0.003658213
0.003743675
0.003200651
0.001824951
0.00365264
0.003678288
0.003672075
0.002605814
0.003643781
0.003639685
0.00365772
0.003775281
0.003926046
0.003694176
0.003689881
0.003492328
0.002373514
0.003653662
0.002933482
0.003639146
0.003636474
0.003652046
0.003779155
0.003940911
0.003684095
0.003676483
0.00368077
0.003673931
0.004172138
0.003918772
0.00319458
0.003649333
0.003699261
0.003634793
0.003633203
0.003817776
0.003853473
0.003679278
0.003680097
0.003672581
0.003673535
0.003914651
0.003645473
0.004073939
0.004163131
0.003943694
0.003876152
0.003962918
0.003879914
0.00397813
0.003630572
0.003629308
0.003616257
0.003476067
0.003709445
0.00372919
0.003435382
0.003516144
0.003845676
0.004337252
0.003856316
0.004108394
0.004120982
0.004296289
0.003597422
0.003853889
0.003872913
0.004164606
0.003627726
0.003778286
0.004193514
0.004404363
0.004567367
0.00475889
0.005193303
0.002265037
0.002866701
0.002513934
0.003089289
0.002564151
0.001313064
0.002173482
0.001331087
0.0006319343
0.0004259602
0.001520453
0.0003990497
0.003519185
0.003772231
0.001290204
0.003302754
0.003195763
0.003660382
0.003220914
0.003672673
0.00371445
0.001251779
0.003692758
0.003766728
0.003794657
0.00385273
0.00363204
0.003651615
0.001318876
0.003635178
0.003661793
0.00364246
0.001448637
0.003624826
0.003640089
0.001639379
0.001802989
0.001549547
0.0009797259
0.001278698
0.002572804
0.004260201
0.005937035
0.007170082
0.007689442
0.006871058
0.004765778
0.003816845
0.003754775
0.004146619
0.004287091
0.004089773
0.004252161
0.004069153
0.004000301
0.003847599
0.00399091
0.003818207
0.004319376
0.00393389
0.00448934
0.004080879
0.001322822
0.002666239
0.004329244
0.005786458
0.006549875
0.006777339
0.006548272
0.006038976
0.005572022
0.005400769
0.005342271
0.005351874
0.004890616
0.005304724
0.004846094
0.004448361
0.0044152
0.005002542
0.00503014
0.001167181
0.00144322
0.001665802
0.001848575
0.001992354
0.002132711
0.002300391
0.002508319
0.002737537
0.002849684
0.003093251
0.00358784
0.001923255
0.004442236
0.004403053
0.002465288
0.001954101
0.002502662
0.005675739
0.005719641
0.001145086
0.001523342
0.001892041
0.003405046
0.0004737435
0.004825948
0.0004743581
0.0007692264
0.0007689892
0.001594676
0.005478691
0.0008805429
0.0008897838
0.003094417
0.001851475
0.003080799
0.003191614
0.003174787
0.004967803
0.003020356
0.00299411
0.003534311
0.002973808
0.001681627
0.003519293
0.00344573
0.003422278
0.003458125
0.003597588
0.003591146
0.003646418
0.003720588
0.00310414
0.001811558
0.003642108
0.003662553
0.003658178
0.002732819
0.00363538
0.003631858
0.003649295
0.003767992
0.003897953
0.003682267
0.003678537
0.003373338
0.002270866
0.003645626
0.002884372
0.003633736
0.00363128
0.003646533
0.003773207
0.003941002
0.003675995
0.003670119
0.00367305
0.003668203
0.00418388
0.003840232
0.003091069
0.003644008
0.003676169
0.003631573
0.003630022
0.003643049
0.003829423
0.003938581
0.003667451
0.003668483
0.003665334
0.0036667
0.004129084
0.003641186
0.004439667
0.004398377
0.004090079
0.003862144
0.004007596
0.003862433
0.004028411
0.003628294
0.003627351
0.003951238
0.003886739
0.003689502
0.003708851
0.003682653
0.003701405
0.003829903
0.003638872
0.003636766
0.003838105
0.004143741
0.004556392
0.004117352
0.004373056
0.004141576
0.004393995
0.003807547
0.004145336
0.003787226
0.004150699
0.003625604
0.00362471
0.003471541
0.003511318
0.003787948
0.003859537
0.003438876
0.00345222
0.003604592
0.004194283
0.004595467
0.004191139
0.004297266
0.00452078
0.004565681
0.003476575
0.002929488
0.003617484
0.003050542
0.003045974
0.004260474
0.004485479
0.004595152
0.004744495
0.005214898
0.002211199
0.0007971277
0.0008831213
0.001131569
0.001234001
0.001917165
0.001145392
0.001242659
0.001330171
0.002811717
0.001370862
0.001982857
0.002323436
0.0005338154
0.002599503
0.0007085796
0.001429956
0.003740493
0.003838279
0.00145028
0.003582427
0.003490861
0.003888796
0.003419367
0.00364682
0.003689098
0.001498015
0.003670995
0.003741861
0.00362471
0.003642933
0.001619248
0.003628194
0.003652788
0.001783427
0.003623017
0.00205224
0.001233555
0.002489831
0.004088839
0.005870601
0.007042757
0.007654409
0.007203329
0.005332369
0.004068918
0.003801887
0.004113283
0.00419864
0.004036807
0.004165689
0.004021352
0.003943881
0.003778246
0.003905164
0.003757929
0.004462036
0.004022623
0.00444829
0.004000201
0.001237546
0.002537587
0.003972461
0.005350327
0.006126387
0.006406777
0.006314464
0.005931348
0.005620386
0.005459739
0.005343886
0.005263564
0.00480225
0.005216631
0.004770078
0.004363847
0.004313051
0.005051631
0.005075104
0.001043577
0.001343067
0.00154333
0.001725642
0.001878629
0.002022147
0.002189696
0.002404463
0.002682474
0.003038754
0.003201549
0.003680669
0.001982227
0.004366553
0.004336299
0.002538362
0.002010311
0.002570155
0.005764692
0.00580578
0.000546044
0.001687289
0.0005281591
0.001185353
0.001074872
0.001831531
0.00342703
0.0004839448
0.005044771
0.0004779838
0.0008140716
0.0008039329
0.001820791
0.005805571
0.0009102582
0.0009200611
0.002967696
0.002317533
0.00282857
0.002977154
0.002780063
0.00560542
0.002937548
0.00288057
0.003494787
0.002925749
0.002027226
0.003478047
0.003369535
0.003336164
0.004079049
0.00358393
0.003579743
0.003638228
0.00370553
0.003029343
0.001895247
0.003637246
0.003652628
0.003652803
0.002982489
0.00362867
0.003626878
0.003642077
0.003766677
0.003872263
0.003672392
0.003670393
0.003262772
0.00221113
0.003639691
0.002899674
0.003629009
0.003627303
0.003641618
0.003771501
0.003937987
0.003669288
0.003665647
0.003667088
0.003664603
0.004169759
0.003738458
0.00299629
0.003639681
0.003648404
0.003628589
0.003627391
0.003639467
0.003824344
0.003945558
0.003663358
0.003665041
0.003662173
0.003664338
0.00417636
0.003638029
0.004551989
0.00446221
0.004167793
0.00386304
0.004061909
0.003862753
0.004076552
0.003626475
0.003625716
0.003637014
0.003997425
0.00401569
0.003677871
0.003695648
0.00367612
0.003693363
0.004101929
0.003635329
0.003635819
0.00363458
0.004285817
0.004756592
0.00503225
0.004257678
0.004585083
0.004295971
0.004624323
0.003781693
0.004201603
0.003788793
0.00423328
0.003624153
0.003623717
0.003825679
0.00395025
0.003764306
0.003842014
0.003755092
0.00382992
0.003803251
0.003639707
0.003649312
0.003663028
0.003622459
0.003735896
0.004408553
0.004819788
0.004566913
0.004688182
0.004594471
0.004718616
0.003557715
0.003006559
0.003538677
0.00299474
0.002770401
0.003717438
0.003953785
0.003528409
0.003596342
0.003493065
0.003531162
0.003776461
0.004458975
0.001022444
0.00104097
0.001004585
0.001000783
0.002136392
0.001068575
0.002194642
0.00105767
0.003714205
0.004079442
0.004794155
0.004869782
0.004975966
0.005160242
0.004340189
0.004566528
0.004888169
0.004867506
0.001019305
0.003958588
0.003984479
0.001236883
0.001410938
0.001671377
0.001134922
0.001294485
0.0008375968
0.00185305
0.002505346
0.002405786
0.001380582
0.003645181
0.001358882
0.002828529
0.002689892
0.002657082
0.001432545
0.00189569
0.003549207
0.002936456
0.0007816513
0.003017256
0.0008109378
0.00157667
0.003732049
0.00382214
0.001701905
0.003710277
0.003639799
0.003678438
0.001807532
0.003663694
0.003728734
0.00362314
0.001947601
0.003626879
0.002245676
0.0005969906
0.004470803
0.0007955596
0.001033525
0.0009702573
0.0005581183
0.002500251
0.0005585343
0.001241051
0.0005559176
0.001323654
0.00136771
0.003980022
0.005717557
0.006904866
0.007443467
0.007188386
0.005764109
0.00435819
0.003933284
0.004140574
0.00413501
0.004004937
0.004114002
0.003994315
0.003865146
0.00374457
0.003832712
0.003733886
0.00445378
0.00400835
0.004473114
0.004030599
0.001361041
0.002508412
0.0005708185
0.001435038
0.00358873
0.004773629
0.005542391
0.005829107
0.005869432
0.005593649
0.005176925
0.005307292
0.005357764
0.005192171
0.004762905
0.005159461
0.004753909
0.004268216
0.004232203
0.00510362
0.00512999
0.001017229
0.001263829
0.001422898
0.001585071
0.001740839
0.001887612
0.002049767
0.002249014
0.00251067
0.002878422
0.003482652
0.003813694
0.00203758
0.004324219
0.004323079
0.002598424
0.002068835
0.002620995
0.00585177
0.005895473
0.002022893
0.002042645
0.001594698
0.002308515
0.001824803
0.0003018082
0.0005199463
0.001199155
0.0002625441
0.002629374
0.0004624674
0.005072675
0.0003200431
0.0008077038
0.0006374479
0.002088435
0.006099807
0.0009446278
0.0009392261
0.002406346
0.002861229
0.002099079
0.002401869
0.002146416
0.006048744
0.002544437
0.002156625
0.003365696
0.002612705
0.002653365
0.003239704
0.003115573
0.00291484
0.004752249
0.003554768
0.003525281
0.003639199
0.003704363
0.002980089
0.002162808
0.003647267
0.003656215
0.003666972
0.003354931
0.003626778
0.003630011
0.003638437
0.003779455
0.003856983
0.003668591
0.003671081
0.00317005
0.002234031
0.003639413
0.003006211
0.003626301
0.003626559
0.003638282
0.003777083
0.003943279
0.003665304
0.003664165
0.003664853
0.0036649
0.004155514
0.003631813
0.002917792
0.003637749
0.00363321
0.003626537
0.003626203
0.003636929
0.003824687
0.003948547
0.003662019
0.003664651
0.003661898
0.00366509
0.004193295
0.003636254
0.004581466
0.004431641
0.004165236
0.003859038
0.004086259
0.003853872
0.004087432
0.003625168
0.003624886
0.003634938
0.003989405
0.004032487
0.003675334
0.003691906
0.003674879
0.003691123
0.004170919
0.00363424
0.003634369
0.003634213
0.004453021
0.005050015
0.005291012
0.004384648
0.004760262
0.004411674
0.004789705
0.003811932
0.004290877
0.003822493
0.004315525
0.003623406
0.00362325
0.003997441
0.004204162
0.003745912
0.003817195
0.003742041
0.003809824
0.004169069
0.003638499
0.003647942
0.003638035
0.003647349
0.004169318
0.003622275
0.003622218
0.004388078
0.005081743
0.005151284
0.004721026
0.004919912
0.004771306
0.004968545
0.003554818
0.003017026
0.003578879
0.003038197
0.002559898
0.00390307
0.003976411
0.003631825
0.00397273
0.003654754
0.003807908
0.003673637
0.003720818
0.003566495
0.003622856
0.003626756
0.003455514
0.003739863
0.004622987
0.0009682514
0.0009625285
0.0009701714
0.0009647974
0.002162711
0.001022836
0.002159556
0.001022736
0.004019652
0.003862922
0.004231292
0.003900114
0.003694848
0.003660805
0.004090326
0.003900925
0.004089618
0.003776931
0.001085887
0.003775811
0.004065533
0.001202439
0.001004723
0.001060626
0.004571579
0.00484538
0.005232237
0.005703182
0.005730731
0.005509187
0.004716194
0.004707182
0.004851666
0.004805567
0.004420193
0.004757636
0.004723495
0.0009959466
0.001218472
0.001425661
0.001307836
0.003011493
0.0009126283
0.002274434
0.001489569
0.004341889
0.001391133
0.004357218
0.001366375
0.00260847
0.002654345
0.002790096
0.002306816
0.002937675
0.001474477
0.001848599
0.003631285
0.003636011
0.003130855
0.0008031174
0.003166513
0.0007942431
0.003713571
0.001681013
0.003722244
0.00381356
0.001889696
0.003638288
0.00209104
0.00366123
0.002313694
0.0008465182
0.004713651
0.004703789
0.0008486403
0.001069978
0.001079962
0.004656392
0.002464989
0.004087707
0.002236052
0.002654599
0.002485659
0.002823168
0.00300703
0.0005294706
0.001419467
0.0005660502
0.001522779
0.005572405
0.00674581
0.007086306
0.006906746
0.00594424
0.004571275
0.004101853
0.004248207
0.004119396
0.004002868
0.004115467
0.004000984
0.003809217
0.003729282
0.003789398
0.003720957
0.004504532
0.004068001
0.004532933
0.004098315
0.0006379617
0.001499635
0.002708656
0.0006908573
0.001868891
0.002211581
0.003281763
0.002648427
0.003102975
0.00411328
0.004803274
0.005113553
0.005261381
0.005142061
0.004703941
0.004226474
0.004753408
0.005140754
0.004772198
0.005053869
0.004748496
0.004220542
0.004212983
0.005160135
0.005186883
0.0009742853
0.001214385
0.001334991
0.001454798
0.001594619
0.001740607
0.001897166
0.002078332
0.002305344
0.002606455
0.0031058
0.004182969
0.002104482
0.004337772
0.004373013
0.002638177
0.002120289
0.002636273
0.005949628
0.006009722
0.003102414
0.002870323
0.002218477
0.003535375
0.002510459
0.0002931017
0.001928553
0.002382049
0.0003163754
0.0003776793
0.00051843
0.0004493427
0.001422207
0.005010321
0.002387917
0.006291875
0.0008736228
0.0004985075
0.00183534
0.003528095
0.001657024
0.002063968
0.002004706
0.006354624
0.001664162
0.001222495
0.00297946
0.002291447
0.003508697
0.002750572
0.002561329
0.002338443
0.005395314
0.003454353
0.003339174
0.0036574
0.003585655
0.002725588
0.002654355
0.00367486
0.003657758
0.003637638
0.003777751
0.003638775
0.003656904
0.003643917
0.00382336
0.003853896
0.003679667
0.003693495
0.003097854
0.002403464
0.003653725
0.003233966
0.003628854
0.00363439
0.003638775
0.00379726
0.003970439
0.003667795
0.003669231
0.00367173
0.003674208
0.004156543
0.003536839
0.002900346
0.003641695
0.003683518
0.00362673
0.003628483
0.00363632
0.003833316
0.003961104
0.003664368
0.003668113
0.003666134
0.003670458
0.004217274
0.003637197
0.004597555
0.004364437
0.004122897
0.003853895
0.004086031
0.00384789
0.004077935
0.003625039
0.003625746
0.003634289
0.003981129
0.00403943
0.003676418
0.003692263
0.00367718
0.003692843
0.004197562
0.003634755
0.003634626
0.003635699
0.004519777
0.005160832
0.005375113
0.004440242
0.004835615
0.004446408
0.004844644
0.003836861
0.004342065
0.003837115
0.00434559
0.00362335
0.003623749
0.004010863
0.004261213
0.003738521
0.003802539
0.003736649
0.003798016
0.004282146
0.003638065
0.003647312
0.003638409
0.003647609
0.004388539
0.003622311
0.003622568
0.004754593
0.005482729
0.005392699
0.004872842
0.005115007
0.004906891
0.005147337
0.003619828
0.003076597
0.003648585
0.003099487
0.002479543
0.004214911
0.003958282
0.003662586
0.003948175
0.003657014
0.004291355
0.003671104
0.003715156
0.003669672
0.003711482
0.004152909
0.00362295
0.003626979
0.003623167
0.003627292
0.004080079
0.004485749
0.004960834
0.0009780044
0.0009726287
0.0009798938
0.0009750909
0.002182996
0.001031287
0.002198514
0.001034495
0.003830626
0.003469089
0.004094397
0.003799928
0.00373301
0.003637894
0.003659468
0.00337429
0.003297958
0.004023067
0.003700628
0.004119847
0.003778739
0.0009583938
0.004013704
0.004079217
0.0009852933
0.0009614407
0.0009891431
0.005443275
0.00530557
0.005125783
0.005126841
0.004527147
0.004017231
0.0038023
0.003774923
0.003628504
0.003612154
0.003655984
0.003708546
0.003837946
0.004082327
0.005029856
0.005514622
0.006006451
0.006776856
0.006976907
0.006055558
0.004660662
0.004190658
0.004771855
0.00430214
0.004619259
0.004673705
0.0047112
0.0008528139
0.001137511
0.001103387
0.0009938534
0.002585175
0.001484654
0.0003752089
0.003627236
0.0002955981
0.0004872945
0.001365043
0.0037616
0.0008459415
0.002650613
0.00162747
0.004491209
0.001426865
0.0005132873
0.0007913776
0.005671437
0.00134053
0.004575514
0.001362786
0.002462587
0.001870059
0.003055261
0.00164816
0.003211588
0.0008176759
0.002942781
0.00154361
0.001791313
0.003640531
0.003634724
0.003196279
0.0007908716
0.003193898
0.0007945911
0.003732944
0.003722449
0.00183213
0.003716714
0.002079381
0.002203531
0.0008961165
0.004596836
0.004306521
0.0009097281
0.001080672
0.001073763
0.004244416
0.003796625
0.003800945
0.005457114
0.003689996
0.004260271
0.004175467
0.004137079
0.004687151
0.002481705
0.003162084
0.002738873
0.003494686
0.0005506277
0.001563264
0.0006636043
0.002196211
0.006353799
0.00653821
0.006399792
0.005795291
0.004678466
0.004102391
0.004408775
0.004162622
0.004049757
0.004162289
0.004051198
0.003792258
0.003727428
0.00379069
0.003722154
0.004564387
0.004130518
0.004588228
0.004151446
0.0007631325
0.001513908
0.003189039
0.0008063804
0.002558253
0.002395452
0.003038594
0.003283737
0.00342297
0.003441484
0.003773014
0.0007810075
0.003061891
0.00357489
0.00390992
0.004224827
0.004043551
0.004371167
0.004598163
0.004621214
0.004303857
0.003785372
0.002573623
0.004702669
0.004595
0.003373876
0.003961324
0.004232241
0.004234988
0.005222904
0.005258739
0.0009174502
0.001163264
0.001291408
0.001370625
0.001470796
0.001597792
0.001744201
0.001909296
0.00210442
0.002343121
0.002694793
0.003248987
0.002109354
0.004418016
0.004519094
0.002527019
0.001723284
0.00154548
0.006104899
0.006259398
0.004522845
0.005284407
0.003312397
0.005088459
0.003834275
0.0003529045
0.003059107
0.003628372
0.0003929339
0.0005200501
0.002295314
0.000573624
0.002950624
0.0004073406
0.0005359276
0.0005521251
0.001425659
0.003612327
0.006421033
0.002187953
0.00436616
0.006463125
0.0007549153
0.0005714536
0.002302924
0.002549102
0.004401613
0.002013526
0.002077676
0.002098771
0.005724367
0.002995828
0.00226572
0.003692112
0.003016053
0.002547077
0.003392511
0.003726593
0.003546253
0.003461473
0.004178088
0.003696011
0.003766155
0.003674934
0.003932885
0.003719238
0.0037278
0.003769351
0.002861482
0.002721562
0.003712054
0.003516645
0.003646526
0.003669136
0.003648623
0.003847404
0.004044594
0.00368529
0.003689006
0.00370069
0.003704709
0.004174869