/*--------------------------------*- C++ -*----------------------------------*\
  =========                 |
  \\      /  F ield         | OpenFOAM: The Open Source CFD Toolbox
   \\    /   O peration     | Website:  https://openfoam.org
    \\  /    A nd           | Version:  8
     \\/     M anipulation  |
\*---------------------------------------------------------------------------*/
FoamFile
{
    version     2.0;
    format      ascii;
    class       volScalarField;
    location    "1000";
    object      p;
}
// * * * * * * * * * * * * * * * * * * * * * * * * * * * * * * * * * * * * * //

dimensions      [1 -1 -2 0 0 0 0];

internalField   nonuniform List<scalar> 
60977
(
-0.6657178
-0.718785
-2.19455
-0.7457402
-0.7398284
-2.28078
-0.7995798
-3.839315
-2.310234
-0.8137362
-0.708665
-2.317764
-0.8062806
-3.924883
-2.38583
-0.8462078
-5.479019
-3.958632
-2.376924
-0.8409792
-2.258409
-0.7501542
-3.974389
-2.399115
-0.8563152
-5.56389
-4.024735
-2.439632
-0.8704985
-7.115625
-5.602903
-4.028985
-2.410107
-0.8241029
-3.932579
-2.31381
-0.8121233
-5.61987
-4.047532
-2.455693
-0.8789362
-7.195573
-5.664344
-4.081038
-2.467963
-0.8643271
-8.748293
-7.240029
-5.675696
-4.070821
-2.399498
-0.75908
-5.577201
-3.996442
-2.396067
-0.8710314
-7.25328
-5.691108
-4.102278
-2.488558
-0.856707
-8.821695
-7.296191
-5.722852
-4.116381
-2.459894
-0.8119049
-10.37877
-8.870095
-7.314203
-5.724574
-4.068589
-2.344656
-0.6530704
-7.209579
-5.640474
-4.070684
-2.481647
-0.5152443
-0.8213756
-1.249753
-0.5046178
-1.282952
-8.878173
-7.323416
-5.745408
-4.138125
-2.474135
-0.8127846
-10.44501
-8.92086
-7.356701
-5.766125
-4.109207
-2.412605
-0.7167232
-12.0081
-10.49552
-8.944644
-7.369189
-5.731168
-4.025999
-2.251739
-0.5296902
-8.833255
-7.269215
-5.713988
-4.147858
-2.077024
-2.458354
-2.916368
-2.132244
-2.95839
-0.7972535
-0.7817926
-0.6685701
-1.389255
-10.49845
-8.947124
-7.378163
-5.786232
-4.13119
-2.434972
-0.7389926
-12.06712
-10.54098
-8.982756
-7.408241
-5.763641
-4.0711
-2.329219
-0.6017923
-13.63618
-12.11823
-10.56943
-9.004929
-7.384911
-5.700779
-3.947894
-2.133328
-0.412123
-10.45225
-8.889666
-7.342765
-5.798802
-3.728877
-4.123986
-4.560166
-3.790834
-4.614744
-2.466401
-2.421394
-2.232125
-3.06099
-0.6676733
-0.7554474
-0.7314026
-0.7418678
-1.263487
-12.11665
-10.56536
-9.003096
-7.426192
-5.785852
-4.095896
-2.364314
-0.6403441
-13.68854
-12.1586
-10.60336
-9.041798
-7.414271
-5.735514
-3.999965
-2.221788
-0.4933483
-15.26236
-13.73909
-12.19064
-10.63397
-9.029143
-7.366129
-5.634341
-3.841101
-2.00722
-0.3134362
-12.07025
-10.50603
-8.963845
-7.435698
-5.367569
-5.781873
-6.190894
-5.440697
-6.258013
-4.120222
-4.08408
-3.889113
-4.715767
-1.994928
-2.403372
-2.817221
-1.952719
-2.771662
-2.365944
-2.069869
-2.88298
-0.5432051
-0.6147467
-1.958342
-1.911406
-0.8117341
-1.26406
-0.7024924
-0.646421
-13.73404
-12.18073
-10.62239
-9.059216
-7.43279
-5.759363
-4.027266
-2.267837
-0.5440568
-15.30918
-13.77484
-12.2206
-10.66822
-9.058905
-7.395175
-5.674886
-3.902719
-2.116705
-0.4058115
-16.88663
-15.35836
-13.80947
-12.25827
-10.66571
-9.02149
-7.310242
-5.536509
-3.721192
-1.88921
-0.2314481
-13.68851
-12.12072
-10.58059
-9.065119
-6.995263
-7.428472
-7.816563
-7.07872
-7.893251
-5.77059
-5.747979
-5.538798
-6.360097
-3.643869
-4.059908
-4.467676
-3.605204
-4.430794
-4.024211
-3.70432
-4.526358
-2.301504
-2.342823
-2.78367
-2.732392
-2.28014
-2.022582
-2.820418
-0.4797594
-1.910433
-0.5160514
-1.872814
-1.868503
-1.833418
-0.8114166
-0.8270664
-1.236911
-1.22035
-0.6026101
-0.6135177
-0.5619898
-15.35113
-13.79476
-12.23824
-10.68556
-9.074017
-7.415804
-5.697329
-3.9358
-2.169983
-0.4657692
-16.92909
-15.39028
-13.83583
-12.28953
-10.69677
-9.049385
-7.344129
-5.585269
-3.803589
-2.038701
-0.349389
-18.50979
-16.97634
-15.42641
-13.87923
-12.29664
-10.66861
-8.976685
-7.220419
-5.421692
-3.602511
-1.818066
-0.1091244
-15.30723
-13.7352
-12.19524
-10.68931
-8.619783
-9.067812
-9.438904
-8.711143
-9.523045
-7.412311
-7.403739
-7.179328
-7.997496
-5.290468
-5.721626
-6.112603
-5.258617
-6.081825
-5.693348
-5.345863
-6.165497
-3.610938
-3.957022
-3.996903
-4.434924
-3.568621
-4.395407
-3.941084
-3.637295
-4.457819
-2.228456
-2.240894
-2.249317
-2.736884
-2.692218
-2.19192
-1.977224
-2.769452
-0.44199
-1.841273
-0.4510219
-1.815677
-1.800818
-1.775221
-0.8066163
-0.7917161
-1.190195
-1.1679
-0.5312452
-1.944106
-2.700189
-2.657357
-0.5324341
-0.5328502
-0.4955412
-16.96817
-15.40829
-13.85216
-12.30693
-10.7097
-9.067054
-7.363814
-5.61114
-3.840786
-2.09746
-0.424516
-18.54849
-17.00526
-15.44986
-13.90749
-12.32785
-10.69764
-9.008334
-7.26131
-5.489176
-3.730265
-1.991171
-0.2640471
-20.13255
-18.59355
-17.04189
-15.4974
-13.92348
-12.30924
-10.6358
-8.895122
-7.109404
-5.303086
-3.527445
-1.612396
-16.92636
-15.35015
-13.80905
-12.31047
-10.2415
-10.70142
-11.0592
-10.3389
-11.14918
-9.048645
-9.054458
-8.814402
-9.629949
-6.931388
-7.374408
-7.751646
-6.904271
-7.725642
-7.356934
-6.982418
-7.800302
-5.259796
-5.620694
-5.667168
-6.083402
-5.225284
-6.050152
-5.613579
-5.280055
-6.102281
-3.564622
-3.888745
-3.89387
-3.906473
-4.388636
-3.531682
-4.359349
-3.856025
-3.583933
-4.403592
-2.165401
-2.170222
-2.157464
-2.159736
-2.130743
-2.731403
-0.4275327
-1.794975
-0.403638
-1.780683
-1.7523
-1.737317
-0.769823
-0.7540273
-1.147387
-1.133271
-1.913202
-2.668237
-0.4718615
-1.88842
-2.642651
-2.626009
-2.600494
-0.4696896
-3.527717
-3.497469
-0.4643044
-0.4721709
-0.4669682
-18.58545
-17.02186
-15.46508
-13.92492
-12.33994
-10.71367
-9.027069
-7.283616
-5.517268
-3.769588
-2.066524
-0.4021193
-20.16752
-18.61997
-17.06317
-15.52325
-13.9538
-12.34066
-10.66775
-8.933261
-7.167262
-5.414391
-3.684279
-1.482396
-1.567924
-2.378939
-2.439179
0.2466383
-1.298886
-1.545178
0.1056548
-0.5672611
-0.722427
-21.75524
-20.2102
-18.6563
-17.11342
-15.54676
-13.9446
-12.28875
-10.56334
-8.787357
-6.990004
-5.216084
-3.510629
-0.4568643
-2.315193
-1.034369
-1.129144
-1.69454
-18.54617
-16.96583
-15.42293
-13.9297
-11.86112
-12.33156
-12.67741
-11.96398
-12.77333
-10.68054
-10.70075
-10.44499
-11.25869
-8.568285
-9.023712
-9.38735
-8.546169
-9.366532
-9.018001
-8.615691
-9.432198
-6.906391
-7.273904
-7.328332
-7.729096
-6.875758
-7.699347
-7.282535
-6.924008
-7.745696
-5.214038
-5.557112
-5.566745
-5.578399
-6.038379
-5.190145
-6.015861
-5.528457
-5.226357
-6.049603
-3.829499
-3.824179
-4.325813
-3.814147
-3.819379
-4.351965
-3.796769
-3.544088
-4.363434
-2.119171
-2.109665
-2.091415
-2.07795
-2.096252
-2.114525
-2.699191
-0.4340278
-1.771419
-0.3781152
-1.769757
-1.724766
-1.721801
-0.7419039
-0.7352743
-1.12445
-1.121777
-1.867961
-2.622313
-0.4218601
-1.85367
-2.608421
-2.578872
-2.564388
-3.496128
-0.4159481
-2.673608
-3.470886
-3.467449
-3.442576
-0.4075863
-0.409633
-0.45138
-0.4603681
-20.20327
-18.6359
-17.07763
-15.54063
-13.96598
-12.35553
-10.68661
-8.954503
-7.190944
-5.443246
-3.735245
-1.631049
-1.68359
-2.479817
-2.533212
0.04180316
-1.620522
-1.668453
-0.002708247
-0.7929812
-0.8337344
-21.78616
-20.23435
-18.67595
-17.13756
-15.57627
-13.97846
-12.32331
-10.6019
-8.841561
-7.090265
-5.359397
-3.241531
-3.28923
-4.090071
-4.128874
-2.434065
-1.468432
-1.724636
-23.37711
-21.82651
-20.26965
-18.72759
-17.16737
-15.57549
-13.9364
-12.22677
-10.45896
-8.665623
-6.895241
-5.204795
-2.111636
-3.229501
-4.083854
-2.597921
-3.162317
-3.490852
-2.260241
-20.16715
-18.58257
-17.03715
-15.5481
-13.47846
-13.95881
-14.29408
-13.58711
-14.39609
-12.30985
-12.34398
-12.07248
-12.88519
-10.20256
-10.66983
-11.02108
-10.18584
-11.00591
-10.67597
-10.24657
-11.06235
-8.551254
-8.92523
-8.988163
-9.373437
-8.524018
-9.347073
-8.951064
-8.56682
-9.388018
-6.862625
-7.214463
-7.226841
-7.244609
-7.686682
-6.842158
-7.666894
-7.197937
-6.873027
-7.696557
-5.178254
-5.501366
-5.500364
-5.157642
-5.984615
-5.486082
-5.489092
-6.003779
-5.464849
-5.186923
-6.011353
-3.79047
-3.766424
-4.296541
-4.272459
-3.749701
-3.735419
-3.756069
-4.320853
-3.777925
-3.511635
-4.331247
-2.091185
-2.062299
-2.036101
-2.017577
-2.012562
-2.049673
-1.704799
-1.715871
-2.548347
-2.574297
-0.4913212
-1.772928
-0.3717377
-1.789778
-1.719253
-1.732252
-0.7364474
-0.7394234
-1.1239
-1.133757
-1.844927
-2.59994
-0.3829389
-1.8434
-2.599477
-2.55288
-2.550928
-2.653542
-3.451347
-0.368763
-2.639842
-3.438265
-3.422513
-3.40896
-0.3625267
-3.486114
-4.29623
-0.3575893
-0.3813856
-0.44224
-0.03205551
-1.6904
-1.731169
-0.03036621
-0.8631857
-0.9034958
-21.82216
-20.25085
-18.69038
-17.15513
-15.58873
-13.99279
-12.34237
-10.62324
-8.864
-7.113462
-5.399617
-3.317201
-3.37131
-4.150735
-4.202922
-2.48955
-2.537474
-1.796889
-1.827206
-23.40343
-21.84844
-20.28801
-18.75054
-17.1966
-15.61087
-13.97463
-12.26801
-10.51339
-8.762591
-7.026399
-4.916795
-4.958242
-5.750064
-5.787593
-3.317368
-4.153654
-2.502044
-24.99717
-23.44202
-21.88243
-20.33956
-18.78542
-17.20329
-15.57786
-13.88716
-12.12615
-10.33362
-8.562896
-6.875079
-4.062022
-4.91408
-5.74608
-4.341495
-4.953748
-5.176407
-3.142726
-3.970466
-21.79068
-20.20092
-18.65203
-17.16688
-15.09406
-15.58605
-15.90908
-15.20918
-16.0197
-13.93789
-13.98431
-13.69834
-14.51166
-11.83565
-12.3148
-12.65437
-11.82491
-12.6455
-12.33212
-11.87632
-12.69191
-10.19524
-10.57516
-10.64603
-11.01752
-10.17139
-10.99465
-10.61782
-10.20887
-11.03012
-8.510697
-8.870912
-8.886043
-8.911127
-9.334764
-8.49251
-9.317096
-8.868182
-8.520048
-9.343708
-6.829669
-7.162754
-7.16232
-6.8124
-7.638896
-7.149329
-7.154601
-7.655511
-7.130018
-6.836451
-7.661841
-5.147985
-5.466874
-5.445558
-5.129394
-5.106219
-5.957348
-5.935311
-5.423323
-5.402407
-5.418816
-5.974527
-5.434805
-5.155509
-5.980991
-3.770191
-3.726152
-4.253408
-4.240924
-3.69822
-3.676384
-3.665872
-3.719069
-3.38313
-3.415642
-4.211629
-4.241082
-4.306237
-2.081139
-2.025777
-1.990763
-1.974038
-1.95611
-1.930021
-1.675101
-1.564021
-2.54058
-2.440672
-2.556211
-2.602514
-0.5989116
-1.813127
-0.3843368
-1.873967
-1.739345
-1.79162
-0.7489156
-0.7262072
-1.151635
-1.182189
-1.848579
-2.60472
-0.3543185
-1.865428
-2.624084
-2.548867
-2.56408
-2.632165
-3.430964
-0.3262695
-2.632249
-3.431949
-3.399144
-3.398612
-3.466702
-4.277568
-0.3228683
-3.453811
-4.265467
-0.3287446
-5.124244
-0.3261627
-0.2642713
0.01623248
-1.787029
-1.604409
-0.02132288
-0.926674
-0.6632239
-1.850722
-1.980531
-23.44035
-21.86774
-20.30374
-18.76939
-17.20991
-15.62546
-13.99347
-12.29014
-10.53593
-8.783209
-7.061012
-4.97681
-5.027826
-5.803803
-5.853089
-3.3593
-3.401338
-4.189627
-4.228367
-2.565362
-2.607939
-25.01886
-23.46068
-21.89995
-20.36156
-18.81515
-17.23988
-15.62027
-13.93185
-12.184
-10.43204
-8.691249
-6.578055
-6.615942
-7.408139
-7.444426
-4.982974
-5.80985
-3.358893
-4.160871
-26.61274
-25.0569
-23.49429
-21.94992
-20.40027
-18.82717
-17.21511
-15.54178
-13.79226
-11.99564
-10.2211
-8.535618
-5.76763
-6.57243
-7.399321
-5.998464
-6.600596
-6.81548
-4.798474
-5.625295
-23.40839
-21.82378
-20.26667
-18.78768
-16.70717
-17.2143
-17.52124
-16.8357
-17.6508
-15.56592
-15.62328
-15.32521
-16.142
-13.46883
-13.96088
-14.28888
-13.46481
-14.28705
-13.98706
-13.50541
-14.32089
-11.83976
-12.22582
-12.30411
-12.66306
-11.81953
-12.64394
-12.2842
-11.8514
-12.67354
-10.159
-10.52746
-10.54386
-10.57653
-10.9837
-10.14277
-10.96799
-10.5379
-10.16752
-10.99183
-8.481684
-8.823549
-8.823617
-8.46641
-9.293204
-8.812745
-8.82164
-9.308015
-8.796306
-8.487547
-9.313562
-6.801669
-7.132831
-7.110384
-6.786206
-6.765271
-7.613919
-7.594365
-7.086714
-7.063282
-7.078842
-7.628895
-7.090789
-6.807411
-7.634285
-5.450918
-5.40982
-5.088421
-5.07695
-5.918565
-5.908243
-5.374439
-5.951853
-5.343536
-5.323614
-5.369871
-5.033987
-5.06223
-5.857431
-5.883573
-5.131341
-5.957876
-3.768786
-3.699074
-4.232305
-4.233125
-3.660048
-3.637329
-3.606744
-3.595142
-3.388665
-3.298637
-4.208438
-4.113555
-3.412033
-3.451225
-4.235224
-4.270438
-4.287638
-2.082346
-2.000927
-1.951278
-1.938729
-1.938336
-1.87039
-1.767538
-2.655863
-2.547788
-2.637134
-2.78839
-0.7273442
-2.271252
-0.4503634
-0.6662742
-0.5223205
-1.201472
-1.607429
-1.893362
-2.650337
-0.3220611
-1.952524
-2.717524
-2.570377
-2.626101
-2.639859
-3.439443
-0.2919811
-2.660754
-3.461492
-3.399248
-3.41693
-3.4473
-4.25933
-0.2872893
-3.448923
-4.26166
-5.106607
-0.3049812
-4.275702
-5.095538
-0.32208
-0.1387808
-2.260547
-1.697297
-25.04687
-23.48151
-21.92153
-20.38344
-18.83175
-17.25524
-15.63979
-13.95487
-12.20727
-10.45187
-8.723085
-6.630845
-6.679199
-7.45823
-7.505274
-5.016036
-5.052876
-5.840098
-5.875134
-3.403783
-3.437007
-4.203508
-4.238674
-26.62194
-25.07136
-23.50852
-21.97123
-20.43139
-18.86514
-17.25917
-15.59294
-13.85422
-12.099
-10.35349
-8.237779
-8.274157
-9.066086
-9.102086
-6.63601
-7.462295
-4.978792
-5.798309
-28.22076
-26.67114
-25.10735
-23.55789
-22.01279
-20.44555
-18.84623
-17.19321
-15.45503
-13.65794
-11.87167
-10.18633
-7.392703
-8.22666
-9.051918
-7.631635
-8.216021
-8.444623
-6.450822
-7.274995
-25.01057
-23.44047
-21.91245
-20.40838
-18.31663
-18.84806
-19.12947
-18.47335
-19.29912
-17.19853
-17.26094
-16.96144
-17.7886
-15.10401
-15.60879
-15.92666
-15.10743
-15.93301
-15.63984
-15.13452
-15.95174
-13.48672
-13.87858
-13.9643
-14.31251
-13.47023
-14.29715
-13.95072
-13.49614
-14.32045
-11.80899
-12.18659
-12.20296
-12.24341
-12.63531
-11.79469
-12.62154
-12.2086
-11.81671
-12.64263
-10.13488
-10.48522
-10.48424
-10.1212
-10.94909
-10.47499
-10.4885
-10.96234
-10.46275
-10.14006
-10.96723
-8.45661
-8.797784
-8.774253
-8.442587
-8.424275
-9.270843
-9.254127
-8.750054
-8.725686
-8.740922
-9.284634
-8.749227
-8.46166
-9.289497
-6.780194
-7.120856
-7.078923
-6.749733
-6.740394
-7.579907
-7.571712
-7.039645
-7.608755
-7.003403
-6.978128
-7.0201
-6.682096
-6.707397
-7.507086
-7.531079
-6.785514
-7.613731
-5.454745
-5.387248
-5.069612
-5.071613
-5.90192
-5.905045
-5.340306
-5.935276
-5.925273
-5.306293
-5.263033
-5.240537
-5.027277
-4.929313
-5.846369
-5.745534
-5.056596
-5.088581
-5.876494
-5.905698
-5.113714
-5.941301
-3.781139
-3.68493
-4.235288
-4.254807
-3.629835
-3.607923
-3.589648
-3.525002
-3.544867
-3.479929
-3.347756
-4.287866
-4.143584
-3.45814
-3.591032
-4.26115
-4.397461
-2.106052
-1.972453
-1.924815
-1.908683
-1.92441
-1.909907
-1.645378
-1.468524
-1.282984
-2.398379
-2.227273
-3.099845
-2.653632
-0.9325614
-0.7434543
-2.344096
-0.5442799
-4.022638
-2.024599
-2.44352
-2.856722
-3.261306
-0.3592648
-2.694629
-3.490985
-0.2782767
-2.765811
-3.560489
-3.426893
-3.483073
-3.458773
-4.270766
-0.2653482
-3.482708
-4.294622
-4.270345
-5.090545
-0.2877588
-4.273312
-5.094068
-0.3147128
-5.102797
-0.2393778
-26.67712
-25.08797
-23.53141
-22.00169
-20.45604
-18.88397
-17.28053
-15.61664
-13.87807
-12.11977
-10.38436
-8.287567
-8.334419
-9.115197
-9.161354
-6.664978
-6.698923
-7.490144
-7.523134
-5.019802
-5.054081
-5.838149
-5.872356
-28.22984
-26.68855
-25.11563
-23.57342
-22.04672
-20.4849
-18.89086
-17.24561
-15.52432
-13.76526
-12.01257
-9.894698
-9.931881
-10.72075
-10.75795
-8.289637
-9.115829
-6.622382
-7.447117
-29.83512
-28.28225
-26.72371
-25.16779
-23.62119
-22.05917
-20.4687
-18.8357
-17.12247
-15.31989
-13.52406
-11.8247
-9.006747
-9.878518
-10.70206
-9.260348
-9.835012
-10.07316
-8.098942
-8.920944
-26.25884
-25.01517
-26.16663
-26.25533
-26.10218
-23.51758
-22.08767
-19.92006
-20.49281
-20.71891
-20.13017
-20.97925
-18.84542
-18.90199
-18.62483
-19.48215
-16.74176
-17.25532
-17.56947
-16.75361
-17.58758
-17.28975
-16.76658
-17.58824
-15.13913
-15.53623
-15.62756
-15.96964
-15.12603
-15.95732
-15.61648
-15.14597
-15.97487
-13.46273
-13.85038
-13.86483
-13.91303
-14.2922
-13.45023
-14.28018
-13.88053
-13.4697
-14.29875
-11.79079
-12.15042
-12.14717
-11.7786
-12.60873
-12.1393
-12.15794
-12.62046
-12.1304
-11.79535
-12.62474
-10.11335
-10.46379
-10.43778
-10.10018
-10.08489
-10.92982
-10.91637
-10.41235
-10.38758
-10.40395
-10.94283
-10.40856
-10.118
-10.94734
-8.437876
-8.789009
-8.74611
-8.41093
-8.403655
-9.241919
-9.235803
-8.704059
-9.267461
-8.664604
-8.635083
-8.674327
-8.335307
-8.359002
-9.16169
-9.184683
-8.442557
-9.271968
-6.764755
-7.128669
-7.060276
-6.735165
-6.739135
-7.567333
-7.572192
-7.008891
-6.755797
-7.594471
-7.586577
-6.966801
-6.915657
-6.884983
-6.668885
-6.565932
-7.491384
-7.386155
-6.698863
-6.726346
-7.521718
-7.547509
-6.770069
-7.599461
-5.473593
-5.377195
-5.07557
-5.096712
-5.910038
-5.932322
-5.314312
-5.921308
-5.925849
-5.279298
-5.931427
-5.245849
-5.168676
-5.163065
-5.100142
-4.949642
-5.914409
-5.760774
-5.073006
-5.204078
-5.889776
-6.018839
-3.814103
-3.672871
-4.26648
-4.326001
-3.611217
-3.581932
-3.57728
-3.549789
-3.427083
-3.123422
-2.973599
-3.91961
-3.77751
-3.840647
-3.366547
-4.637233
-4.160714
-2.191202
-2.00675
-1.902932
-1.895786
-1.910445
-1.925796
-1.40633
-1.468943
-2.283003
-2.307408
-1.138952
-1.173153
-2.222036
-0.9215362
-2.075942
-1.95439
-0.9338389
-0.8129582
-2.142935
-2.104652
-2.192456
-2.114602
-0.7961789
-2.380293
-0.6173983
-4.104188
-3.027998
-2.958974
-0.444192
-5.724211
-4.398983
-3.699854
-4.070392
-4.510239
-4.871151
-0.3176745
-3.52064
-4.32567
-0.2727699
-3.597013
-4.284759
-5.104569
-0.2834351
-4.310372
-5.129821
-5.098553
-0.3078998
-5.102694
-0.3069445
0.1522913
-1.421147
0.1198556
-1.258483
-0.7983268
-27.8819
-26.72444
-27.10948
-27.12084
-27.93807
-27.91749
-27.96432
-25.1288
-23.60288
-22.0919
-20.51137
-18.91574
-17.27189
-15.5486
-13.78733
-12.04353
-9.94501
-9.991602
-10.77156
-10.81814
-8.317563
-8.350386
-9.143773
-9.176404
-6.66283
-6.697635
-7.488191
-7.523116
-29.86292
-28.3117
-28.71831
-28.74297
-26.73577
-25.17589
-23.65009
-22.09921
-20.51449
-18.88677
-17.18928
-15.43385
-13.67069
-11.54725
-11.58692
-12.36899
-12.40866
-9.943128
-10.76785
-8.274041
-9.09966
-31.43904
-29.89665
-28.34239
-26.78351
-25.22926
-23.66719
-22.08395
-20.46424
-18.7799
-16.99663
-15.16608
-13.45058
-10.62725
-11.52545
-12.34313
-10.88806
-11.45528
-11.69523
-9.743901
-10.56458
-26.27047
-25.0761
-26.13946
-26.28431
-26.16792
-26.24182
-27.09991
-27.09989
-26.21239
-23.65849
-21.50342
-22.26596
-22.16492
-21.84953
-22.79654
-20.50774
-20.54588
-20.35469
-21.30739
-18.38993
-18.91022
-19.24221
-18.41134
-19.26765
-18.93755
-18.40853
-19.25168
-16.80124
-17.20259
-17.28759
-17.64157
-16.78746
-17.62732
-17.2787
-16.80628
-17.64569
-15.12367
-15.52223
-15.53258
-15.58684
-15.95907
-15.11239
-15.94785
-15.5539
-15.13003
-15.96518
-13.45179
-13.82154
-13.81404
-13.44089
-14.27494
-13.80687
-13.83074
-14.28545
-13.79907
-13.4558
-14.28919
-11.77348
-12.13361
-12.10405
-11.76092
-11.74912
-12.59314
-12.58349
-12.07699
-12.05232
-12.07007
-12.60558
-12.06783
-11.77784
-12.60984
-10.0978
-10.45796
-10.41289
-10.07383
-10.06864
-10.90656
-10.90257
-10.36736
-10.92909
-10.3252
-10.29317
-10.33095
-9.991194
-10.01419
-10.81781
-10.84074
-10.10215
-10.93332
-8.424784
-8.799633
-8.730171
-8.400155
-8.405623
-9.233055
-9.239282
-8.675486
-8.417917
-9.255617
-9.24983
-8.627981
-8.570967
-8.534894
-8.318522
-8.211831
-9.143688
-9.035581
-8.348473
-8.373554
-9.173874
-9.1981
-8.42951
-9.260207
-7.15234
-7.054002
-6.74534
-6.768287
-7.579033
-7.602576
-6.986144
-6.75282
-6.758229
-7.584494
-7.590671
-6.941328
-6.761242
-7.591685
-6.897547
-6.810931
-6.795717
-6.734265
-6.579108
-7.554489
-7.397479
-6.714334
-6.841731
-7.538705
-7.664264
-5.519734
-5.371278
-5.111389
-5.171242
-5.948006
-6.009964
-5.296934
-5.937316
-5.963403
-5.254933
-5.928202
-5.93332
-5.23276
-5.191649
-5.048445
-4.704309
-4.56616
-5.508033
-5.370652
-5.430927
-4.948995
-6.245423
-5.756647
-3.893186
-3.697475
-3.589121
-3.566579
-3.561865
-3.562696
-3.087378
-3.121031
-3.906887
-3.936911
-2.86273
-3.049958
-3.869111
-2.800268
-3.684567
-3.651325
-2.24398
-2.074547
-1.94694
-1.890701
-1.895421
-1.916874
-1.503669
-1.509588
-2.330184
-2.338577
-2.277898
-1.297987
-2.25539
-0.8606439
-0.7945489
-2.474557
-0.8207176
-2.45468
-2.986298
-2.94248
-0.8391032
-2.422429
-0.686073
-4.070031
-0.5206882
-5.783093
-3.856111
-3.816937
-4.680827
-4.653965
-0.3901312
-7.395701
-5.236743
-6.072465
-5.331389
-5.692519
-6.144359
-6.510308
-4.425446
-0.3110583
-4.349319
-5.162274
-0.2836486
-5.115398
-0.2949808
-5.142116
-0.2972386
0.1098391
-1.456356
-1.473943
0.1107514
-0.7262326
-0.7001342
-1.609999
-27.95855
-26.76528
-27.15073
-27.16814
-28.00126
-27.9785
-28.02169
-27.94528
-27.97885
-28.78916
-28.82359
-25.18951
-23.6934
-22.13848
-20.54564
-18.91844
-17.21525
-15.45784
-13.69955
-11.60047
-11.64783
-12.42344
-12.47109
-9.971937
-10.00503
-10.79739
-10.83093
-8.317168
-8.353128
-9.144395
-9.180871
-29.51942
-31.47625
-29.93906
-30.40013
-29.57781
-30.46428
-28.37117
-28.7987
-28.82138
-26.79573
-25.25163
-23.70283
-22.12958
-20.51485
-18.84376
-17.09826
-15.3342
-13.19382
-13.23557
-14.01005
-14.05156
-11.59289
-12.4124
-9.926925
-10.75168
-33.0037
-31.50276
-29.96222
-28.40535
-26.84145
-25.27344
-23.69206
-22.08134
-20.41795
-18.66872
-16.80429
-15.05182
-12.23852
-13.15888
-13.96072
-12.50119
-13.03867
-13.28856
-11.38503
-12.1996
-26.30981
-25.15847
-26.19747
-26.33587
-26.23022
-26.26268
-27.13663
-27.16235
-26.2914
-27.07562
-27.95805
-27.0908
-27.97773
-23.85906
-22.39635
-22.20241
-22.34259
-23.37924
-20.08219
-20.57351
-20.98333
-20.09749
-20.99271
-20.58017
-20.10994
-21.09687
-18.48449
-18.88391
-18.94567
-19.35053
-18.45924
-19.31879
-18.93627
-18.49244
-19.36384
-16.79802
-17.20461
-17.20854
-17.26087
-17.6458
-16.7852
-17.63151
-17.22304
-16.80481
-17.65326
-15.12185
-15.50228
-15.4879
-15.11157
-15.95224
-15.48073
-15.50845
-15.96262
-15.47099
-15.12553
-15.96624
-13.43957
-13.80986
-13.77493
-13.42722
-13.41952
-14.26382
-14.25867
-13.74497
-13.72049
-13.73965
-14.2762
-13.72436
-13.44379
-14.28038
-11.76162
-12.13059
-12.08246
-11.74054
-11.7375
-12.57629
-12.57452
-12.03293
-12.59585
-11.98855
-11.95503
-11.98987
-11.64693
-11.67022
-12.4707
-12.49452
-11.76577
-12.59991
-10.08725
-10.47078
-10.39934
-10.0667
-10.07342
-10.90134
-10.90876
-10.34072
-10.08252
-10.91992
-10.91631
-10.28828
-10.22755
-10.18815
-9.972516
-9.863865
-10.79922
-10.68998
-10.00236
-10.02623
-10.8283
-10.85198
-10.09173
-10.92433
-8.826688
-8.726442
-8.413292
-8.437059
-9.247366
-9.271483
-8.654678
-8.416689
-8.423535
-9.249422
-9.256905
-8.603405
-8.422778
-9.254545
-8.551885
-8.459301
-8.440786
-8.380805
-8.223017
-9.205151
-9.046535
-8.368661
-8.493568
-9.195789
-9.319484
-7.205962
-7.053193
-6.785442
-6.845708
-7.620115
-7.681433
-6.970579
-6.770509
-6.797084
-7.603539
-7.630431
-6.918266
-6.75898
-6.764942
-7.590317
-7.597013
-6.88342
-6.831561
-6.681833
-6.324427
-6.187219
-7.142466
-7.005638
-7.070981
-6.575307
-7.895874
-7.394627
-5.585754
-5.392274
-5.276074
-5.996201
-5.236787
-5.946888
-5.974121
-5.214615
-5.20003
-4.716345
-4.746055
-5.528334
-5.555442
-4.481839
-4.676752
-5.485875
-4.462318
-5.288514
-5.266689
-3.918353
-3.753557
-3.617294
-3.545208
-3.548584
-3.56198
-3.143275
-3.158677
-3.957379
-3.972726
-3.105506
-3.916048
-3.034787
-3.838275
-2.309498
-2.132751
-1.999379
-1.916175
-1.872905
-1.87758
-1.506797
-1.486648
-2.345342
-2.330312
-2.306258
-2.321306
-2.356002
-0.8041579
-0.7619947
-2.416317
-0.7648866
-2.413298
-4.136437
-0.4189616
-2.419751
-1.179022
-0.470891
-1.259547
-4.143939
-3.783747
-3.770847
-0.8081927
-2.49728
-0.7134197
-0.5510752
-1.306633
-4.071976
-0.5698887
-5.752722
-0.4437682
-7.447251
-5.512651
-5.494195
-6.335629
-6.31922
-4.631928
-4.608126
-0.3480227
-9.059559
-6.904676
-7.738051
-6.969236
-7.340337
-7.792428
-8.169369
-5.256807
-6.086342
-0.2901438
-5.181511
-0.2481689
-0.2829054
0.1021193
-1.482154
-1.522117
0.09201666
-0.7025625
-0.750943
-1.652111
-1.672089
-28.00737
-26.81865
-27.1946
-27.21985
-28.04768
-28.03217
-28.0685
-28.02182
-28.04728
-28.87582
-28.90108
-28.84755
-28.88503
-29.6298
-29.6843
-25.28301
-23.74354
-22.16974
-20.55243
-18.87433
-17.12664
-15.35945
-13.24989
-13.29791
-14.06638
-14.1133
-11.62384
-11.65835
-12.44476
-12.48025
-9.974036
-10.01161
-10.80066
-10.83909
-31.16126
-33.03325
-31.54725
-31.92315
-31.25409
-32.0128
-29.63575
-30.01113
-30.49324
-29.65583
-30.50904
-30.60623
-30.67508
-28.43711
-28.85553
-28.88343
-26.86413
-25.30452
-23.73477
-22.13128
-20.47949
-18.76019
-16.97831
-14.83213
-14.87687
-15.64862
-15.71185
-13.23057
-14.03995
-11.57698
-12.39695
-34.5474
-33.09688
-31.57341
-30.02892
-28.46075
-26.88274
-25.29639
-23.68907
-22.04081
-20.31701
-18.49773
-16.64803
-13.77541
-14.75691
-15.55352
-14.06154
-14.52349
-14.89527
-13.00839
-13.80067
-26.36397
-25.3538
-26.26192
-26.42253
-26.36874
-26.32198
-27.19074
-27.21929
-26.35493
-27.13433
-28.02755
-27.16311
-28.05941
-27.91801
-28.89992
-27.9428
-28.93871
-24.17954
-23.81002
-22.51122
-22.28132
-22.22054
-22.36035
-23.16966
-20.21458
-20.5637
-20.60076
-21.11134
-20.15207
-21.0439
-20.58437
-20.26175
-21.28688
-18.50043
-18.90756
-18.90073
-18.93093
-19.37625
-18.4776
-19.34585
-18.88972
-18.51232
-19.39581
-16.80789
-17.1954
-17.16839
-16.79527
-17.64774
-17.16133
-17.1863
-17.66222
-17.13559
-16.81233
-17.66763
-15.11589
-15.49633
-15.45371
-15.10284
-15.10003
-15.94678
-15.94698
-15.41911
-15.39468
-15.4144
-15.96036
-15.38164
-15.12027
-15.96494
-13.43206
-13.80964
-13.75699
-13.41367
-13.41292
-14.25437
-14.25493
-13.70191
-14.27119
-13.65472
-13.62104
-13.65027
-13.29693
-13.32137
-14.11227
-14.13738
-13.43616
-14.27528
-11.75388
-12.14516
-12.07107
-11.73705
-11.7449
-12.57477
-12.58323
-12.00797
-11.75138
-12.58965
-12.58834
-11.95085
-11.88795
-11.84498
-11.62832
-11.51987
-12.4537
-12.34602
-11.65595
-11.67963
-12.47848
-12.50259
-11.75827
-12.59401
-10.50008
-10.39769
-10.08215
-10.10632
-10.91777
-10.94216
-10.32145
-10.08292
-10.09098
-10.91751
-10.92614
-10.26434
-10.08715
-10.92087
-10.20725
-10.11156
-10.09278
-10.03347
-9.874576
-10.85953
-10.70065
-10.02643
-10.14923
-10.85371
-10.97552
-8.883632
-8.729058
-8.455319
-8.514848
-9.289812
-9.350022
-8.640533
-8.436919
-8.463954
-9.270691
-9.29784
-8.58187
-8.422265
-8.429621
-9.254864
-9.262831
-8.537255
-8.478033
-8.327318
-7.969047
-7.831959
-8.79434
-8.65796
-8.728349
-8.222671
-9.556315
-9.047815
-7.265851
-7.076135
-6.953148
-6.829978
-7.663208
-6.89883
-6.779202
-6.806748
-7.61179
-7.639473
-6.863392
-6.836037
-6.345543
-6.370532
-7.164453
-7.187362
-6.106178
-6.301302
-7.118984
-6.080105
-6.926345
-6.896557
-5.596061
-5.436199
-5.293137
-5.20876
-6.012979
-5.195351
-5.192772
-4.76463
-4.780522
-5.572597
-5.587066
-4.722316
-5.527343
-4.640571
-5.446643
-3.951533
-3.786679
-3.661611
-3.570645
-3.524776
-3.553911
-3.172128
-3.169377
-3.983461
-3.976288
-3.140569
-3.163499
-3.94922
-3.971305
-3.11982
-3.896646
-2.377411
-2.187863
-2.049398
-1.953126
-1.889526
-1.825885
-1.850565
-2.332925
-2.363771
-2.390127
-2.422826
-0.7052519
-2.347434
-0.7585956
-2.361551
-4.078476
-2.341381
-4.08756
-5.798373
-2.010162
-4.094231
-2.842417
-2.077093
-2.895965
-5.818904
-0.5768721
-2.141959
-0.6170541
-2.000538
-2.077004
-1.926973
-0.6108426
-0.7889073
-1.364231
-1.22177
-4.127447
-2.964932
-2.895517
-2.096708
-2.899616
-0.5740503
-5.727433
-0.4762289
-7.427509
-0.3802017
-9.109072
-7.159217
-7.148196
-7.982754
-7.974639
-5.438085
-5.431662
-6.283784
-6.264819
-0.3121981
-10.72442
-8.569735
-9.403151
-8.619872
-9.001693
-9.447087
-9.833389
-6.917146
-7.748017
-0.2518237
-0.1525749
0.09754925
0.0928357
-0.8280837
-0.5407409
-1.694414
-1.850885
-28.05894
-26.89905
-27.2415
-27.3121
-28.0833
-28.08416
-28.10971
-28.07632
-28.09738
-28.93235
-28.95573
-28.94269
-28.97516
-29.74821
-29.77609
-29.69883
-29.7715
-25.34303
-23.77808
-22.17487
-20.51688
-18.78964
-17.02099
-14.88929
-14.9345
-15.70879
-15.74574
-13.26481
-13.30166
-14.07518
-14.11306
-11.6285
-11.66824
-12.45084
-12.49192
-31.38816
-33.12011
-34.57286
-33.15399
-31.27819
-31.63466
-32.06877
-31.30241
-32.09622
-32.11893
-31.45875
-32.21893
-29.69469
-30.08384
-30.55487
-29.72349
-30.58517
-30.70278
-30.72169
-30.92202
-31.01988
-28.49821
-28.91278
-28.94264
-26.91463
-25.33643
-23.73693
-22.09876
-20.40216
-18.63825
-16.8983
-14.84505
-15.68444
-13.21392
-14.02036
-36.03821
-34.70052
-33.18085
-31.64624
-30.08223
-28.49798
-26.9018
-25.29081
-23.65101
-21.94945
-20.16275
-18.37449
-14.55966
-15.27005
-25.63838
-26.9157
-25.40065
-26.39996
-27.2404
-27.34213
-26.66961
-27.19114
-28.08756
-27.22253
-28.10805
-27.99824
-29.00789
-28.03386
-29.04659
-28.89443
-29.76733
-28.94198
-29.86343
-24.28989
-23.92937
-23.83821
-22.55606
-22.3563
-22.39647
-23.07919
-22.269
-22.2221
-23.93689
-20.25811
-20.60662
-20.58302
-20.59248
-21.17845
-20.19764
-21.10717
-20.5444
-20.30811
-21.33755
-18.52482
-18.91093
-18.8678
-18.50115
-19.37552
-18.86027
-18.86789
-19.40729
-18.80292
-18.53438
-19.42363
-16.80985
-17.19632
-17.14059
-16.79317
-16.79619
-17.64986
-17.65624
-17.09679
-17.07184
-17.08291
-17.66875
-17.02211
-16.81547
-17.67544
-15.11351
-15.49884
-15.43977
-15.09723
-15.09882
-15.94589
-15.94872
-15.37745
-15.96091
-15.32645
-15.2941
-15.31232
-14.93196
-14.95593
-15.74073
-15.75894
-15.11789
-15.9655
-13.42746
-13.82554
-13.74787
-13.41394
-13.42272
-14.25658
-14.26575
-13.67879
-13.42732
-14.26832
-14.26941
-13.6156
-13.5516
-13.50518
-13.28115
-13.17672
-14.10136
-14.00244
-13.30061
-13.32517
-14.1125
-14.13772
-13.43193
-14.27284
-12.1758
-12.07123
-11.75443
-11.77873
-12.59289
-12.61723
-11.98987
-11.75338
-11.76252
-12.59112
-12.60074
-11.92704
-11.75596
-12.59289
-11.86555
-11.76785
-11.74897
-11.68755
-11.52937
-12.51171
-12.35484
-11.68285
-11.8034
-12.50663
-12.62587
-10.55797
-10.40277
-10.12505
-10.18371
-10.96078
-11.01997
-10.30866
-10.10514
-10.13231
-10.9406
-10.96778
-10.24364
-10.08828
-10.09683
-10.92282
-10.93191
-10.19188
-10.12821
-9.98051
-9.623201
-9.487359
-10.45143
-10.3169
-10.38788
-9.877024
-11.2157
-10.70403
-8.940442
-8.754613
-8.625861
-8.496471
-9.330093
-8.563352
-8.444833
-8.472575
-9.278398
-9.306144
-8.51912
-8.480097
-7.9885
-8.009769
-8.811277
-8.830634
-7.754063
-7.942153
-8.765323
-7.721338
-8.582219
-8.547342
-7.269193
-7.112448
-6.966843
-6.870079
-6.845215
-7.677376
-6.839547