/*--------------------------------*- C++ -*----------------------------------*\
  =========                 |
  \\      /  F ield         | OpenFOAM: The Open Source CFD Toolbox
   \\    /   O peration     | Website:  https://openfoam.org
    \\  /    A nd           | Version:  8
     \\/     M anipulation  |
\*---------------------------------------------------------------------------*/
FoamFile
{
    version     2.0;
    format      ascii;
    class       volScalarField;
    location    "1000";
    object      p_rgh;
}
// * * * * * * * * * * * * * * * * * * * * * * * * * * * * * * * * * * * * * //

dimensions      [1 -1 -2 0 0 0 0];

internalField   nonuniform List<scalar> 
60977
(
0.1117246
0.05296979
0.1425712
0.02532318
0.03441207
0.0674472
-0.02392626
0.1755075
0.04190402
-0.03864852
0.0760606
0.03367297
-0.02449401
0.09305818
-0.01712484
-0.0663809
0.2032094
0.0607803
-0.0189814
-0.06380343
0.07666737
0.03539342
0.04698509
-0.02702819
-0.06949935
0.1194633
-0.0005344418
-0.06079569
-0.08934009
0.222869
0.08087055
-0.005658188
-0.0486034
-0.04588953
0.09250691
0.03030417
-0.0270494
0.06585289
-0.01740576
-0.06860493
-0.08963818
0.143068
0.02006429
-0.05024154
-0.08585506
-0.08385676
0.2362969
0.09859547
0.009815583
-0.04490558
-0.03619023
0.01954311
0.1117892
0.03938256
-0.02635854
-0.06609183
0.08664661
-0.002069889
-0.06150598
-0.09212752
-0.07267196
0.1627191
0.04163752
-0.03560495
-0.08261339
-0.07858651
-0.03183879
0.2454944
0.1142087
0.02494313
-0.03779737
-0.04149105
0.0192731
0.1256346
0.1324279
0.05486544
-0.01933345
-0.08109088
-0.08541884
-0.03070584
-0.07289792
-0.09423697
-0.09054821
0.1068296
0.01703356
-0.05072286
-0.0917003
-0.08089328
-0.03009382
0.1790729
0.06252232
-0.01815446
-0.07744082
-0.07596953
-0.03246535
0.06315736
0.2527232
0.1284732
0.03969558
-0.029583
-0.04388882
0.001370595
0.1122538
0.2490916
0.1528706
0.07558786
-0.009607814
-0.0862831
-0.07128815
-0.0555477
-0.07029123
-0.1117339
-0.1149335
-0.0091923
0.001469334
-0.2256095
-0.1797063
0.1258641
0.03747347
-0.03550887
-0.08917543
-0.08683258
-0.04604512
0.0432227
0.1935914
0.08240146
0.0005160308
-0.06936022
-0.07554886
-0.03926089
0.05020209
0.1781203
0.2600091
0.1424458
0.05448418
-0.02048831
-0.04517903
-0.01349173
0.07942374
0.2308349
0.3671165
0.1725926
0.09736557
0.006177778
-0.08981506
-0.06549507
-0.06677293
-0.06720266
-0.1206083
-0.126728
-0.04403729
-0.02803857
-0.2035019
-0.2094342
0.1390424
0.02927362
0.05136887
-0.3077776
-0.04938746
0.1441526
0.05850995
-0.01797282
-0.08303245
-0.09120508
-0.05675892
0.02249097
0.141809
0.2076049
0.1017733
0.01975935
-0.05865486
-0.0760502
-0.04867739
0.03082256
0.1575934
0.2869643
0.268826
0.1570309
0.06997236
-0.01006699
-0.04472161
-0.02648775
0.05283987
0.1864414
0.3580703
0.4671227
0.190771
0.1189937
0.0246669
-0.08523242
-0.06176269
-0.07739779
-0.05865262
-0.1295601
-0.1314294
-0.04847662
-0.03737725
-0.2156659
-0.222731
0.03140504
-0.004244393
0.03249115
0.06313891
0.06903758
0.02335668
-0.0364957
-0.02810761
0.2647185
0.1714601
0.07051672
0.1067292
-0.3739353
-0.04610133
0.08069272
0.1361919
0.1621366
0.07980484
0.001438655
-0.07432152
-0.09173436
-0.06892909
0.008122112
0.11841
0.23844
0.2220095
0.1211766
0.03958812
-0.04530674
-0.07631226
-0.05792442
0.01097199
0.1279926
0.2637023
0.3756243
0.27948
0.1728131
0.08662505
0.002321219
-0.04184829
-0.03716572
0.02929456
0.1508548
0.3076434
0.479207
0.5506825
0.2077446
0.1402922
0.04481567
-0.07639233
-0.05195993
-0.08153105
-0.04799351
-0.1304592
-0.1304087
-0.05684506
-0.05124774
-0.2267736
-0.2302937
0.02751296
-0.004365091
0.0235957
0.06020545
0.05519728
0.01468024
-0.0291218
-0.03217204
0.1046453
0.04853078
0.0678997
0.1106459
0.10779
0.01379468
0.03640187
0.3284874
0.1199758
0.270908
0.1584259
0.151
0.1869475
-0.3704261
-0.3840922
-0.01657327
0.00117396
0.1809963
0.1691923
0.2208906
0.1801011
0.1013078
0.02217234
-0.06207617
-0.0906233
-0.07770118
-0.01043128
0.09844525
0.2171918
0.3178011
0.2371041
0.1409028
0.06011202
-0.02947309
-0.07421945
-0.06745032
-0.007610149
0.1005146
0.2286447
0.3443119
0.4355093
0.291275
0.1897653
0.1047674
0.01686639
-0.03608674
-0.04482174
0.007554004
0.1192234
0.2667199
0.4299441
0.5544227
0.6496611
0.2240533
0.1610372
0.06582205
-0.06404032
-0.04073398
-0.08139528
-0.03500883
-0.1271141
-0.1247583
-0.05996529
-0.06191079
-0.2314957
-0.2323384
0.01991802
-0.01837862
0.01606664
0.04843601
0.04370527
-0.00346436
-0.03338947
-0.03525727
0.06164378
0.1053185
0.04539133
0.05714509
0.09835315
0.09211796
0.09493338
0.03896078
0.03693449
0.1803405
0.152224
0.139312
0.1158694
0.1522141
0.1965544
0.06084051
0.08841074
0.366389
0.1903339
0.3362026
0.2160731
0.219921
0.2457423
-0.3628233
-0.3476701
0.03178321
0.05417492
0.2526175
0.09475805
0.1532076
0.1878365
0.2503419
0.2499243
0.2882985
0.1981388
0.1229283
0.04385137
-0.04672685
-0.08710598
-0.0855214
-0.0281451
0.07452174
0.1949397
0.2928725
0.3627305
0.25279
0.1609858
0.08134031
-0.0115677
-0.06797447
-0.07546813
-0.0268806
0.07514301
0.198088
0.3062585
0.3938787
0.5153283
0.3035077
0.2074981
0.1242575
0.03379158
-0.02739228
-0.04873479
-0.01207934
0.08914753
0.2308795
0.388221
0.5125907
0.6712703
0.2400663
0.1810986
0.08716965
-0.04953227
-0.02731119
-0.07743042
-0.02030754
-0.1196146
-0.1157668
-0.05931589
-0.07111782
-0.2314288
-0.2297578
0.01541676
-0.02850163
0.01290338
0.04075842
0.03701729
-0.01970973
-0.03450832
-0.03490412
0.05108
0.08733327
0.02627094
0.04562548
0.0826462
0.0763647
0.07280615
0.03267409
0.02811523
0.1087412
0.1763602
0.1512521
0.1306424
0.103954
0.1363043
0.1290625
0.1808752
0.09287923
0.09144209
0.2442527
0.2239894
0.2316521
0.2285569
0.2605927
0.1269443
0.3808366
0.2368078
0.3836857
0.2510935
0.2687244
0.2837289
-0.3257787
-0.3100426
0.07466524
0.08873499
0.125953
0.185464
0.3121542
0.1507992
0.2111783
0.21959
0.2453101
0.3131837
0.1460884
0.171144
0.31828
0.3110962
0.3203845
0.2161613
0.1444971
0.06616047
-0.02894238
-0.0801278
-0.0920804
-0.04702948
0.05115991
0.1699885
0.2715158
0.33214
0.3988341
0.2690063
0.1814248
0.1031916
0.008038772
-0.0578901
-0.0809404
-0.04584489
0.0481332
0.170257
0.2770098
0.3614548
0.4599462
0.4058482
0.4215
0.3750812
0.5792017
0.5640322
0.4341549
0.4727248
0.5138393
0.4348198
0.3157985
0.2258108
0.1448243
0.05278679
-0.01553999
-0.04853686
-0.0283102
0.06033654
0.1972054
0.3520181
0.4816119
0.5453556
1.528706
0.4922983
0.951137
1.71227
1.141136
0.2558398
0.2005167
0.1082967
-0.03350556
-0.01199389
-0.0711333
-0.003625088
-0.1096459
-0.1049218
-0.05508535
-0.07836194
-0.2270466
-0.2235556
0.01407462
-0.03806629
0.01256892
0.03532622
0.03223697
-0.03739766
-0.0327472
-0.03182331
0.04063439
0.07501687
0.01132339
0.03564244
0.06971164
0.06396768
0.05225746
0.02395929
0.01976413
0.09716434
0.1529491
0.1295005
0.1089788
0.090885
0.1183475
0.111184
0.1590563
0.08650465
0.08086708
0.2365942
0.2226441
0.1630927
0.2239796
0.2174459
0.1409238
0.2455965
0.1329858
0.1317345
0.2907982
0.2851253
0.298176
0.309865
0.2929177
0.2849308
0.1593376
0.3740145
0.2603162
0.4092125
0.2618844
0.2962258
0.299076
-0.2979862
-0.2914543
0.09750506
0.1000917
0.1712439
0.2315562
0.3622504
0.1855096
0.2454519
0.267009
0.2815206
0.1779006
0.3670568
0.1849663
0.2032445
0.2014939
0.2265422
0.3750339
0.3726198
0.3339398
0.3409692
0.234011
0.1658272
0.08881812
-0.009258071
-0.06999762
-0.09608082
-0.06578206
0.02501571
0.1450893
0.2495715
0.3180969
0.3603723
0.3136123
0.3439763
0.2945287
0.4180862
0.3795313
0.33729
0.3754776
0.3771393
0.3393803
0.285636
0.2023712
0.1257475
0.02907507
-0.04481277
-0.08252506
-0.06368022
0.01996649
0.1404552
0.2501256
0.3411143
0.4002542
0.3596982
0.3847659
0.3489745
0.3911241
0.4799096
0.2790772
0.3287514
0.2443775
0.1665074
0.07368279
-0.001089308
-0.04428621
-0.04041869
0.03356173
0.1647584
0.3197493
0.4505063
0.5046722
1.54337
0.4249163
0.4000303
1.068874
1.331878
0.9998803
0.5778363
0.2712713
0.2192062
0.1291068
-0.01682189
0.005553903
-0.06256486
0.01457195
-0.09782262
-0.0927398
-0.0487412
-0.08408007
-0.2196184
-0.2151522
0.01503918
-0.04619948
0.01400188
0.03144033
0.0284866
-0.05491156
-0.02868307
-0.02704431
0.03121198
0.0622044
-0.006110408
0.02659197
0.05764891
0.05214795
0.02819122
0.016134
0.01239456
0.08455123
0.135801
0.1148405
0.0911238
0.07818229
0.1036091
0.09674838
0.1378111
0.07497697
0.06893189
0.1331462
0.2094852
0.1975544
0.1512176
0.1427292
0.2024337
0.1984696
0.125629
0.2287955
0.1260075
0.1191579
0.276017
0.2813186
0.1926407
0.2168855
0.289311
0.3012692
0.2849265
0.1721953
0.2766585
0.1655427
0.1639796
0.3188194
0.3328147
0.353997
0.3704471
0.3734481
0.3388007
0.2933642
0.2779073
0.2801822
0.2517727
0.3146167
0.2584989
0.4154236
0.2412069
0.3013191
0.2877391
-0.2927797
-0.2959713
0.0977848
0.08755292
0.194221
0.2539035
0.4012198
0.1956864
0.2542919
0.2929796
0.2948291
0.2050312
0.2228247
0.414362
0.2187215
0.2359144
0.2466858
0.2602543
0.4203568
0.191095
0.1968998
0.4246595
0.397611
0.3386253
0.3466138
0.3162457
0.2720478
0.3476277
0.310893
0.2702964
0.2509921
0.1868268
0.1115974
0.01169274
-0.05694856
-0.09664441
-0.08309056
-0.002596907
0.1163465
0.2266073
0.3041043
0.3365632
0.2848858
0.3296818
0.2787347
0.3436571
0.2986524
0.2116779
0.1830161
0.3030248
0.2235144
0.1494177
0.05178597
-0.02956176
-0.07922337
-0.07862277
-0.008355367
0.108772
0.2210353
0.3198669
0.3821038
0.3434554
0.3725239
0.3359001
0.342039
0.3320438
0.3389471
0.3432686
0.2633674
0.1886877
0.09689894
0.01600138
-0.03701325
-0.04675936
0.008614282
0.1339947
0.2902963
0.4241916
0.4767395
1.237507
0.39232
0.3807198
0.9691759
1.181892
0.9530259
0.5257911
0.5212792
0.285392
0.2372558
0.1493563
-0.0005266238
0.02481173
-0.05422169
0.03441352
-0.08497155
-0.08145008
-0.04141205
-0.08771938
-0.2105741
-0.2067265
0.01704663
-0.05421008
0.01577159
0.02780039
0.02427228
-0.07245535
-0.02351805
-0.0217063
0.02241062
0.04950054
-0.02408203
0.01762481
0.04589338
0.04007059
0.002742352
0.009018341
0.005210557
0.07184613
0.1173571
0.09732803
0.0688137
0.06533871
0.08930234
0.08233685
0.1117812
0.06292133
0.05672211
0.1176066
0.1880685
0.1806424
0.1335729
0.1249313
0.1874971
0.1813177
0.1094316
0.2103235
0.1115779
0.1036671
0.1635271
0.2443221
0.2532784
0.1796689
0.2029568
0.1701611
0.1923181
0.2661922
0.2853006
0.2744695
0.1549636
0.2699713
0.1574571
0.1495431
0.2963728
0.3221014
0.2360016
0.2485283
0.3416018
0.3607498
0.3734495
0.3312113
0.273664
0.2401862
0.2705556
0.2407718
0.1890145
0.3284471
0.3694629
0.3997771
0.414937
0.4299582
0.4433954
0.304208
0.3867746
0.2783076
0.3659073
0.2805681
0.232955
0.1575775
0.2168648
0.4021166
0.153505
0.2792882
0.2247164
-0.3057557
-0.2838252
0.06887966
0.03609284
0.190375
0.2488865
0.4298159
0.1732608
0.2291999
0.2966175
0.2809116
0.2263819
0.2431991
0.4569448
0.2262612
0.2421621
0.2700443
0.270471
0.2105133
0.2156001
0.4602517
0.2234039
0.2277142
0.4545225
0.1873298
0.4527682
0.4527094
0.3872816
0.1998156
0.2740457
0.3182707
0.2396428
0.437433
0.1602295
0.03088237
0.266605
0.2064617
0.1347918
0.03355817
-0.04208074
-0.09303908
-0.09697414
-0.03067467
0.08524808
0.1995594
0.2862413
0.3263905
0.2763414
0.3206748
0.2717851
0.3030432
0.2623349
0.2972736
0.2591464
0.2769804
0.2348923
0.3211855
0.2447137
0.1735686
0.07727793
-0.0119899
-0.07252643
-0.08840532
-0.03568352
0.07580359
0.1908247
0.2954356
0.3636882
0.327268
0.354343
0.3180784
0.3245561
0.317501
0.3105368
0.3312101
0.3615553
0.2825448
0.2111955
0.1216832
0.03645704
-0.02574555
-0.04895743
-0.01096206
0.1031315
0.264262
0.4033386
0.4540955
1.170689
0.3730684
0.3647689
0.9488374
1.172119
0.9496993
0.51296
0.5045037
0.297965
0.2531297
0.1701724
0.01397888
0.04652534
-0.04669562
0.05706862
-0.07655954
-0.07764426
-0.03424831
-0.09025222
-0.2025707
-0.2022156
0.01889183
-0.06386904
0.01626974
0.02315394
0.01799456
-0.0897311
-0.01770996
-0.01578812
0.01295453
0.03536644
-0.04372336
0.007120594
0.03308984
0.02608714
-0.02419709
0.001395313
-0.003312349
0.05868555
0.09769758
0.07894211
0.0446488
0.05148785
0.07456895
0.06687967
0.08324829
0.05037732
0.04351066
0.1009124
0.1650884
0.1606311
0.115514
0.1063474
0.1680523
0.1586128
0.09213409
0.1864268
0.09543556
0.0868792
0.1456669
0.2182544
0.2333062
0.1598891
0.1808841
0.1500074
0.1696509
0.2510093
0.272928
0.2615412
0.1360964
0.2569644
0.1406344
0.1312363
0.2603702
0.2895259
0.220821
0.2323
0.2091057
0.219479
0.3159158
0.1776884
0.3447002
0.3691402
0.3341144
0.270489
0.2422997
0.2677696
0.2416021
0.1816429
0.1726723
0.2974091
0.3493906
0.257115
0.2562523
0.3804676
0.4008906
0.4327616
0.4508553
0.264344
0.3502676
0.2724794
0.3659342
0.2520718
0.2126281
0.2525746
0.217417
0.2076229
0.3247254
0.3941302
0.4395565
0.4511852
0.4510968
0.5029072
0.4908121
0.1742473
0.2682957
0.2061157
0.05560129
0.03413956
0.0969695
0.3352437
-0.2284349
-0.1061807
0.008357036
-0.4641925
0.1448487
0.2022935
0.4619122
0.0849683
0.1337399
0.2735675
0.216088
0.2185742
0.234556
0.4912733
0.1975262
0.2122904
0.2696375
0.2515421
0.2299088
0.2338418
0.4959798
0.2282709
0.2314829
0.204998
0.4789383
0.2195637
0.2160787
0.4630691
0.5780202
-0.2496133
0.2689908
0.2775496
0.224299
0.1569119
0.05780184
-0.02643185
-0.08627532
-0.106537
-0.05766461
0.05275579
0.170525
0.2636308
0.3129482
0.2650916
0.3046925
0.2577167
0.292143
0.2556678
0.2876358
0.2528085
0.2658794
0.2326988
0.2885626
0.2533505
0.3409948
0.2644514
0.1982162
0.1049739
0.009140983
-0.0616726
-0.09154356
-0.06068376
0.04226648
0.1610356
0.2705745
0.3421514
0.3066237
0.333332
0.2969885
0.3099915
0.301953
0.3328669
0.3316249
0.3529247
0.3029955
0.231845
0.1480628
0.05922407
-0.008865493
-0.04495244
-0.02736628
0.07529471
0.2368955
0.3879959
0.4390213
1.181775
0.3551911
0.3479325
0.9510442
1.192197
0.9557024
0.49676
0.4902591
0.2999274
0.2678299
0.1877745
0.02999485
0.07197318
-0.04323878
0.08392013
-0.07904292
-0.09068284
-0.03175516
-0.09103555
-0.2039659
-0.2139749
0.01870218
-0.07555714
0.01348375
0.01573674
0.007304136
-0.1051724
-0.01194141
-0.01177202
0.0009935921
0.0187641
-0.06617099
-0.007326261
0.01757708
0.008111611
-0.05206035
-0.008452928
-0.01532451
0.04373862
0.07488735
0.05805896
0.01748307
0.03490545
0.05793062
0.04859163
0.05225767
0.03608334
0.02761108
0.08283201
0.1401668
0.1391398
0.09619708
0.08585039
0.1469044
0.1331521
0.07288265
0.1597887
0.07783797
0.06811883
0.1260217
0.1910355
0.2105087
0.1394103
0.1577495
0.1287698
0.1455526
0.231431
0.2549943
0.2419578
0.1155448
0.2376215
0.121332
0.1109529
0.1671792
0.2303145
0.2651788
0.1964737
0.2058085
0.1841327
0.1923813
0.2987736
0.1562689
0.3332934
0.3621989
0.3275085
0.2623087
0.2371555
0.2561014
0.2320568
0.1625433
0.1518001
0.2563155
0.312306
0.2396377
0.2375622
0.2257808
0.222661
0.3507301
0.1942928
0.2043116
0.3828063
0.4299526
0.4621246
0.2769338
0.3744479
0.2787435
0.3792747
0.2521334
0.2202555
0.2515787
0.2224408
0.1992796
0.1892568
0.2832415
0.363311
0.2539147
0.2341507
0.4111935
0.4315304
0.4520514
0.5209463
0.5205444
0.1826854
0.3123604
0.1998546
0.3439003
0.2117715
0.07945448
0.2309672
0.09498436
0.2897248
0.4216605
0.4660886
0.4818017
0.4678187
0.4782602
0.6127267
0.5512306
0.7087133
0.452015
0.6239121
-0.2547424
0.1930202
-0.111187
0.04275838
-0.008620144
0.2417143
0.05439317
0.01412937
-0.4225479
0.001016464
-0.4046451
0.4244198
0.1634017
0.1823987
0.5049365
0.09188717
0.1121871
0.2408039
0.1830877
0.2183781
0.2223017
0.5179807
0.1943657
0.1983146
0.2249207
0.2210715
0.4963409
0.2219484
0.2175252
0.4724447
0.2102017
0.5409456
0.2818439
0.2347132
0.1805674
0.08310184
-0.008588938
-0.07716269
-0.1105057
-0.08201228
0.02028546
0.1408675
0.2396167
0.2934121
0.246857
0.2840712
0.2378476
0.281292
0.2475131
0.2742598
0.2413524
0.2918597
0.2575607
0.2918117
0.257612
0.29742
0.2825037
0.2190612
0.1359605
0.03223662
-0.04457631
-0.0873424
-0.07743788
0.008896554
0.1317928
0.2475757
0.3213645
0.2848553
0.3141239
0.2765446
0.2924535
0.2840263
0.3253159
0.3181902
0.09561775
0.3252349
0.2502615
0.1718434
0.08512702
0.01269385
-0.03222433
-0.03472992
0.04291365
0.2100396
0.3704187
0.43469
1.202886
0.3386825
0.3327487
0.9572821
1.207972
0.9618127
0.4838365
0.4793674
0.2840614
0.2685787
0.3152682
0.2783537
0.3198154
0.2112524
0.04513085
0.1039486
-0.04209433
0.1299798
-0.09969605
-0.1341467
-0.04324863
-0.0931568
-0.2324216
-0.2724192
0.01594809
-0.08555532
0.00572777
0.004863364
-0.01179036
-0.1175581
-0.00914467
-0.01343912
-0.01644082
-0.002906667
-0.09192203
-0.02947829
-0.003073633
-0.01682746
-0.07933765
-0.02339769
-0.03488143
0.02498172
0.04713365
0.0338743
-0.01291944
0.01299613
0.03754267
0.0251435
0.01999466
0.0179886
0.006385046
0.06195445
0.1111881
0.1142436
0.07403827
0.0614609
0.1223504
0.103983
0.0497687
0.1311049
0.05745599
0.04551159
0.1043877
0.1617094
0.1859231
0.1172549
0.1325525
0.1051576
0.1186593
0.2100493
0.2345912
0.2189497
0.0924103
0.2154982
0.0999088
0.08801363
0.1447776
0.1998803
0.2389512
0.1711331
0.1783936
0.1577725
0.1639421
0.277934
0.1327405
0.3165069
0.347943
0.3124855
0.2459775
0.2224179
0.2376522
0.2145829
0.1404435
0.1284891
0.1826395
0.2223803
0.2839975
0.2110531
0.2070236
0.1967445
0.1919171
0.3300538
0.1916073
0.1705713
0.1784794
0.3704817
0.4249052
0.4621162
0.2756017
0.3784727
0.2717702
0.3768221
0.2476545
0.2202266
0.2428299
0.2170561
0.1779955
0.1660763
0.2364172
0.3221747
0.2335165
0.2121306
0.2175621
0.1951935
0.3772119
0.2082761
0.2037274
0.4107311
0.1991362
0.4481835
0.5340219
0.5525987
0.2087558
0.3593532
0.2137846
0.367481
0.2386818
0.1077657
0.2402202
0.1112215
0.2443872
0.3742405
0.2219774
0.1619676
0.4300383
0.4586899
0.4669986
0.5004399
0.6381425
0.5518283
0.702805
0.5756672
0.7184037
-0.1691131
0.3064992
-0.1441648
0.3332787
0.1967592
0.3850954
0.487675
0.49486
0.4826805
0.4737112
0.5439018
0.5098506
0.5230975
0.5111389
0.8523858
0.7041659
0.5931629
1.096965
0.7749065
0.8950178
-0.06348971
-0.01960764
-0.144145
-0.08666123
-0.1943875
-0.1079144
-0.004619609
0.01825637
0.1667279
-0.03640355
-0.1773842
-0.1203034
0.3393085
-0.006514023
0.0934017
-0.02326137
-0.3953366
-0.01534692
-0.3778278
0.4654337
0.1563106
0.1670392
0.5104929
0.07977551
0.210484
0.2069801
0.5005217
0.1848362
0.1816373
0.2144502
0.4790563
0.2103085
0.4940591
0.4893583
0.5645379
0.4894185
-0.1624368
0.3651558
0.2427136
0.2337667
0.2670107
0.2530034
0.2106465
0.2309055
0.1976941
0.1938165
0.1172332
0.005820865
-0.06376546
-0.1084572
-0.1001075
-0.01138998
0.1122323
0.2168572
0.2718139
0.2254768
0.2631339
0.2164877
0.2646427
0.231903
0.2561447
0.2235433
0.2849113
0.2501305
0.2771504
0.2422457
0.03978472
0.2981146
0.18765
0.1924607
0.2345713
0.1611497
0.0606161
-0.02195945
-0.07483373
-0.08295712
-0.01938154
0.1020575
0.2273693
0.3037983
0.2649437
0.3006676
0.2607936
0.2742432
0.2669881
0.3087904
0.300667
-0.07119634
0.3266238
0.265697
0.1908165
0.1110323
0.03928312
-0.01231768
-0.02801515
0.020644
0.1688452
0.3657347
0.4427244
1.216625
0.3262761
0.3257071
0.9636541
1.220809
0.9727364
0.4738075
0.4704559
0.2525415
0.2155078
0.2889792
0.2384516
0.2660298
0.3538115
0.2819691
0.2715543
0.3679305
0.1187218
0.1522896
-0.06881111
0.2732141
-0.1834858
-0.2837068
-0.06655442
-0.09181889
-0.3268115
-0.4622257
0.002965438
-0.1021712
-0.03153142
-0.01698241
-0.05546126
-0.1268458
-0.01628346
-0.04209548
-0.04356843
-0.03319523
-0.1142706
-0.06639559
-0.02926996
-0.05143572
-0.1034488
-0.04886378
-0.07086784
-0.0009832077
0.01115543
0.003598438
-0.04768192
-0.01890563
0.01049878
-0.007333887
-0.01297164
-0.007454468
-0.02517576
0.03593602
0.07603266
0.08494361
0.04688426
0.0304274
0.0942298
0.07182071
0.01975815
0.1026919
0.03190125
0.01594429
0.07927672
0.128045
0.1575334
0.0917417
0.1035312
0.07706766
0.08675678
0.1850408
0.2103783
0.192423
0.06465826
0.1928976
0.07496699
0.06041107
0.1199504
0.1675752
0.2109778
0.14364
0.1488109
0.1284773
0.1325195
0.2553378
0.106166
0.297311
0.3300626
0.2932187
0.2258701
0.2030231
0.2169808
0.1939911
0.1157632
0.1020408
0.1578851
0.1891999
0.2550418
0.1819168
0.1763962
0.1666733
0.1604941
0.3069119
0.1647592
0.1445973
0.150397
0.3535614
0.4122861
0.4517705
0.2628528
0.3695524
0.2556169
0.3635904
0.233849
0.208794
0.2261054
0.2018802
0.1534964
0.140257
0.1981124
0.2901546
0.2007949
0.1776854
0.1850037
0.1614606
0.3531362
0.194588
0.1891694
0.1805654
0.1743898
0.3964818
0.1868281
0.1738589
0.4435444
0.5362337
0.5582073
0.2123322
0.3675205
0.2100862
0.36709
0.2334517
0.1060845
0.2266722
0.1011257
0.187282
0.3272175
0.1970592
0.1361397
0.1792706
0.117368
0.3947755
0.1922303
0.1660943
0.4359185
0.2023655
0.1972508
0.4623932
0.5124731
0.6671802
0.6089093
0.7473928
0.6226147
0.7600974
-0.1187916
0.363579
-0.1152479
0.3737067
0.1587795
0.347149
0.4517337
0.4752139
0.4850531
0.4926024
0.5612911
0.5319436
0.5725225
0.5440181
0.8135002
0.6096784
0.6181651
0.8745016
0.8112744
0.8437532
0.1484142
0.3152358
0.4429649
0.4997916
0.4967025
0.4832069
0.4901257
0.4893094
0.4960095
0.4908536
0.5514566
0.6661012
0.5899536
0.007470258
-0.0005358202
-0.04560248
-0.01816624
-0.03978019
-0.1260023
-0.09624534
-0.04951545
-0.01830453
0.09761611
-0.008899185
0.26241
-0.06921573
-0.184177
-0.1508167
-0.18958
-0.1673443
0.392838
-0.04095397
0.07430865
0.05686661
-0.01845051
-0.3799566
-0.01383711
-0.3803811
0.06962752
0.4722174
0.1458348
0.149029
0.4996919
0.1976005
0.4896321
0.170869
0.5041867
0.4871991
0.5462861
0.5329735
0.4892828
0.4461854
0.4736
0.3989752
0.2418992
0.1948817
0.2190875
0.2021663
0.1959414
0.231215
0.1862235
0.2095222
0.1972198
0.1079348
0.1164797
0.1395845
0.02825084
-0.04854867
-0.09997824
-0.110156
-0.03933094
0.08397092
0.1986961
0.2515633
0.2045423
0.2463009
0.1986471
0.2455142
0.2124907
0.2375409
0.204048
0.2656931
0.2297526
0.2559517
0.2194899
-0.04411793
-0.116292
0.2829173
-0.1643566
-0.03809832
-0.1500935
0.2425288
0.2183223
0.2106004
0.1763764
0.08848204
0.007801935
-0.05397485
-0.07549134
-0.03851224
0.07743988
0.2090313
0.2927325
0.251781
0.2986119
0.2553824
0.2591436
0.256704
0.2908339
0.2834334
-0.2016433
0.2249333
0.2641376
0.2022434
0.1334366
0.06751097
0.01448725
-0.009851337
0.01799191
0.1317808
0.3661143
0.566989
1.236433
0.3267399
0.344329
0.9816877
1.26505
1.008551
0.4670072
0.4689694
0.2123599
0.1322495
0.2371563
0.1862468
0.204568
0.3293062
0.2347272
0.2112412
0.3060742
0.3231908
0.228254
0.3078553
0.2140038
-0.07603539
-0.2152303
-0.09464172
-0.6858437
-0.9310963
-0.05293408
-0.1191666
-0.1333435
-0.06534817
-0.1417925
-0.1285153
-0.08300732
-0.2530356
-0.09172217
-0.07739276
-0.1335067
-0.1400725
-0.06540633
-0.1067894
-0.1236145
-0.1002209
-0.1542579
-0.04037914
-0.03537048
-0.03483466
-0.08324317
-0.07065429
-0.0271271
-0.05567533
-0.04249307
-0.04738476
-0.07843464
0.0008279963
0.03112101
0.04849058
0.01129695
-0.01170725
0.05961359
0.03537775
-0.02244599
0.07470962
-0.00295152
-0.02622683
0.04816217
0.08771998
0.1241227
0.06056399
0.06824053
0.04154916
0.04673427
0.1564691
0.1833413
0.1644983
0.02901833
0.1745857
0.04391523
0.02476571
0.09113901
0.1310649
0.1791568
0.1121404
0.1151485
0.09395672
0.09577132
0.2291705
0.07440658
0.2743875
0.308198
0.271505
0.2054879
0.182429
0.1992888
0.1755238
0.08704065
0.07034642
0.1305114
0.15472
0.2246049
0.15078
0.1440058
0.1337306
0.1263621
0.2821695
0.1352505
0.1153454
0.1189643
0.3344293
0.3958474
0.4361748
0.2446761
0.3534079
0.2355907
0.3447281
0.2151835
0.1913344
0.2067217
0.183044
0.1261894
0.1110417
0.1618199
0.2587456
0.1687344
0.1448471
0.1523572
0.1282832
0.3280824
0.1659923
0.159143
0.1508083
0.143332
0.3786511
0.1602337
0.1459237
0.4317284
0.5274393
0.5492989
0.2015443
0.3593352
0.1948296
0.353428
0.2142309
0.08933284
0.2045806
0.0808891
0.1428792
0.2903812
0.1603259
0.09921331
0.1438027
0.08279984
0.3687462
0.1768721
0.1502531
0.1615078
0.1345994
0.4197911
0.1890946
0.1831355
0.1752307
0.1685385
0.4580825
0.5162295
0.6720973
0.6236426
0.7609137
0.6230384
0.7598571
-0.123124
0.3726206
-0.1304696
0.3708054
0.1176354
0.3043658
0.4152418
0.133212
0.4546317
0.1836837
0.1564492
0.4812648
0.5053076
0.5874744
0.558398
0.5965376
0.5697121
0.8316851
0.632186
0.642381
0.8508265
0.842229
0.8639338
0.1306952
0.2882408
0.4223916
0.4968583
0.5022259
0.4972525
0.5129317
0.4993003
0.5248246
0.5103849
0.556737
0.5715299
0.637652
0.6554731
0.08547126
0.2570947
0.389734
0.4741147
0.5181704
0.5104349
0.49308
0.5114177
0.4849605
0.4988582
0.5288502
0.5157105
0.4879993
0.06003437
0.0282381
0.007046603
0.01429684
-0.005061906
-0.06038398
-0.02135636
-0.02183446
-0.01436601
-0.06671929
-0.06774801
-0.07450204
-0.1208534
-0.1061524
-0.001662788
-0.07343509
0.07146401
-0.1056873
-0.09156811
-0.009441853
0.213112
-0.04320964
0.3390471
-0.09437241
-0.2015202
-0.1853593
-0.2067049
-0.1926442
-0.1312507
-0.1173309
0.4351641
-0.06883432
0.04245322
0.02694221
-0.02109792
-0.3921434
-0.02687997
-0.4041389
0.05612915
0.04421695
0.4937667
0.1314506
0.531476
0.4780408
0.4808501
0.5254585
0.4832564
0.4700602
0.471623
0.4230401
0.3581624
0.3384645
0.2062165
0.1459876
0.1765035
0.1515352
0.164271
0.1838662
0.1450547
0.1772524
0.162465
0.1378807
0.1359571
0.07248919
0.07143558
-0.1577895
-0.1093216
0.0536008
-0.02398966
-0.08584057
-0.1078092
-0.06277932
0.05925094
0.1843536
0.2374844
0.1898053
0.239648
0.1922191
0.2283824
0.1940217
0.2246427
0.1893321
0.243754
0.2062011
0.2345195
0.19613
-0.2569193
-0.2352087
0.1338994
-0.2589218
-0.2551838
-0.2906979
0.1759289
0.2180825
0.1163582
0.1818493
0.1330177
-0.4197093
-0.3587648
0.1760769
0.1820932
0.156647
0.1103812
0.03877673
-0.0244485
-0.05652032
-0.03950014
0.04985442
0.2155677
0.303297
0.252804
0.3272146
0.2441613
0.2554809
0.2639114
0.2752879
0.2721151
-0.2551888
-0.02249111
0.2091332
0.1914204
0.1457794
0.09281369
0.0450278
0.01755288
0.03065212
0.1187444
0.3056698
0.5839108
1.323327
0.3783064
0.4967742
1.049585
1.401241
1.039409
0.4758142
0.4983637
0.1549828
-0.05769923
0.1705898
0.09711779
0.06575976
0.2763955
0.1839572
0.1552818
0.2447298
0.2667727
0.1784666
0.2395038
0.1549626
0.2875459
0.05506943
0.2648601
0.04507514
-0.340412
-0.07890698
-0.3667831
-0.1707428
-0.1269446
-0.7021851
-0.6649373
-0.1860557
-0.1145896
-0.1464316
-0.2638019
-0.1212539
-0.1941575
-0.1341682
-0.2348473
-0.4428364
-0.1077553
-0.1018894
-0.08848964
-0.1154951
-0.1659474
-0.08402595
-0.13419
-0.07316918
-0.1201025
-0.1862242
-0.05025226
-0.02621896
0.005370296
-0.03725642
-0.0719361
0.01747589
-0.003013877
-0.08709208
0.05462709
-0.05489938
-0.09279608
0.006797634
0.03705742
0.08269046
0.02002615
0.02281254
-0.00624383
-0.006414897
0.1216284
0.1507557
0.1350689
-0.02018233
0.1625901
0.002307935
-0.02492434
0.05568186
0.08791273
0.142016
0.07411194
0.074837
0.05103168
0.05052088
0.1994033
0.03403842
0.2492991
0.284755
0.2518695
0.1909354
0.1670302
0.1935571
0.1691214
0.05155066
0.02987414
0.09888628
0.1164552
0.1905034
0.1156286
0.1077263
0.09551133
0.08710571
0.2540443
0.1013903
0.08060914
0.08192588
0.3119121
0.3753086
0.4170862
0.2243785
0.3330315
0.2165929
0.3243377
0.1964807
0.1728214
0.1912027
0.1670925
0.09454762
0.07625462
0.1252573
0.2262241
0.1353015
0.1110368
0.1173117
0.09299151
0.3016129
0.1348564
0.1267944
0.1177692
0.1091461
0.3585909
0.1307762
0.1145056
0.4162211
0.5128203
0.5325532
0.1840929
0.3429847
0.1754857
0.3343384
0.1913937
0.06859812
0.1815262
0.05970795
0.1040073
0.2558058
0.1264768
0.06621976
0.1098975
0.05014207
0.3424847
0.1457523
0.1186932
0.1295406
0.1023896
0.4009719
0.1607508
0.1533988
0.1456104
0.1376482
0.4470216
0.509001
0.6627852
0.6139281
0.7510493
0.6060716
0.7424192
-0.1454418
0.360254
-0.1559416
0.352569
0.08101976
0.2662965
0.3858299
0.1172872
0.1017878
0.4390419
0.1688777
0.1413324
0.1537649
0.1260855
0.4776011
0.5119961
0.5989754
0.5742129
0.598599
0.5757945
0.8419499
0.6453582
0.6456146
0.8679574
0.8391526
0.8689446
0.1048048
0.2580285
0.3970596
0.482628
0.1175864
0.5010284
0.5129782
0.5403663
0.5249685
0.5527272
0.5382478
0.5865826
0.6008749
0.6719173
0.6836918
0.09928274
0.2539374
0.3766131
0.4704752
0.5274326
0.5188177
0.4868236
0.4905155
0.5004756
0.5083104
0.5231603
0.5008906
0.5386433
0.5167824
0.5511885
0.5962036
0.02272421
0.2025795
0.3392973
0.4367345
0.5024572
0.5544955
0.4722298
0.5045487
0.4730887
0.4531471
0.4200518
0.08078762
0.05659561
0.02616969
0.03398979
-0.01194267
0.02268493
-0.02352298
-0.08194474
-0.00444648
-0.02784779
0.007916912
-0.05462758
-0.04978909
-0.1050437
0.2312497
-0.1139729
0.1691923
0.02907831
-0.05971658
0.09175981
-0.1666318
-0.3452832
-0.1465373
-0.002091412
-0.05350548
-0.1138568
-0.05382201
-0.06406751
-0.04508542
0.2092557
-0.01737994
0.306521
-0.07683758
0.4028458
-0.1192542
-0.2116295
-0.2014851
-0.2179769
-0.2111432
-0.1358828
-0.1254664
-0.1453986
-0.1346007
0.4718617
-0.09816302
0.01277812
-0.002902784
-0.03679392
-0.4184729
-0.04661688
-0.4331628
0.03093687
0.01754912
0.5326264
0.5395944
0.4684873
0.4317501
0.3380521
0.5598555
0.3164228
0.1603013
0.1559811
0.06852776
0.1280442
0.05636048
0.1291399
0.1289856
0.1002483
0.137587
0.1175022
0.1115569
0.08997365
0.07513085
0.06897366
0.06320933
0.07626015
-0.1841359
-0.1453754
0.002704012
-0.0603836
-0.09410641
-0.07104443
0.0298002
0.1880227
0.2365879
0.1903934
0.2383497
0.198198
0.2215738
0.1850083
0.2283413
0.1905402
0.2239488
0.1843087
0.2186147
0.1777643
-0.505768
-0.3540881
-0.2813691
-0.1294059
-0.01874885
0.1156227
-0.09196927
0.01559616
-0.05567813
-0.5062988
-0.4504879
-0.5209323
0.1506406
0.131018
0.09602312
0.1229889
0.06339984
-0.1015718
-0.07067353
-0.7636891
-0.6929407
0.1109232
0.1262832
0.09473939
0.06372903
0.008791898
-0.02701442
-0.02412888
0.04051836
0.1845891
0.3673955
0.2799996
0.2708367
0.2712947
0.2802104
-0.2659702
-0.2521837
0.02237206
0.1195668
0.1298738
0.1071319
0.07418512
0.05084505
0.05570438
0.1222364
0.2729742
0.442644
0.5539411
0.7043849
-0.3279702
-0.008221501
-0.05474025
0.1904854
0.1305989
0.02343679
-0.1333478
0.2120849
0.1302586
0.1807186
0.1102606
0.2156648
0.02010913
0.1840867
0.003662983
0.1024777
-0.1608086
0.07123385
-0.1628844
-0.4423348
-0.186041
-0.1114875
-0.4812457
-0.2474545
-0.7359614
-0.6036681
-0.1704322
-0.1342643
-0.6087546
-0.2300007
-0.1612965
-0.1288659
-0.1386479
-0.332044
-0.1676317
-0.2587175
-0.09347237
-0.281163
-0.4933122
-0.132193
-0.1055608
-0.05595135
-0.1077483