/*--------------------------------*- C++ -*----------------------------------*\
  =========                 |
  \\      /  F ield         | OpenFOAM: The Open Source CFD Toolbox
   \\    /   O peration     | Website:  https://openfoam.org
    \\  /    A nd           | Version:  8
     \\/     M anipulation  |
\*---------------------------------------------------------------------------*/
FoamFile
{
    version     2.0;
    format      ascii;
    class       surfaceScalarField;
    location    "1000";
    object      phi;
}
// * * * * * * * * * * * * * * * * * * * * * * * * * * * * * * * * * * * * * //

dimensions      [1 0 -1 0 0 0 0];

internalField   nonuniform List<scalar> 
178492
(
0.004693185
-0.0005377922
-0.004155393
0.005218709
-0.001208085
0.0006825626
0.005886191
0.000573672
-0.006997654
0.002866399
0.00117158
-0.008193371
0.003342865
-0.001207468
0.003083313
0.00680329
-0.0005443487
-0.001580835
0.003177248
0.0002745141
9.720158e-05
0.006255939
0.001835607
-0.007517873
0.003142215
0.002435391
-0.01140368
0.0007132877
0.001785266
-0.01069192
-0.001509811
0.004852677
0.004767178
-0.001185022
0.002013667
0.001499176
-0.0002331841
0.00499457
0.007475854
0.0005964191
-0.002360681
0.003807379
0.000977425
-0.002948908
0.001317006
0.0009917164
-0.001498231
0.006421931
0.002943951
-0.007530275
0.003387084
0.003637806
-0.01210737
0.001053972
0.003383216
-0.0140556
-0.001063229
0.002346203
-0.0119749
-0.002124334
0.005381702
-0.00135215
0.007704004
0.005293943
-0.0004973353
0.001494225
0.002198881
-0.0004639714
0.003852954
0.0008718995
-2.368911e-05
0.005463367
0.007916286
0.001741409
-0.002639344
0.004383089
0.001828631
-0.004207891
0.001760255
0.001932111
-0.004595584
-0.0004893893
0.001580727
-0.003652797
0.00641252
0.003885444
-0.007354012
0.00362762
0.00465469
-0.01217478
0.00136015
0.004695883
-0.01478019
-0.0003687809
0.004141271
-0.01548189
-0.002100034
0.002787779
-0.01266264
-0.001761229
0.00493084
-0.00228282
0.008511255
-0.001579139
0.01015504
0.00564497
0.0004825847
0.001291397
0.002596335
-0.000145157
0.002962165
0.001651155
-6.274298e-05
0.00400111
0.000769247
0.0003238129
0.00388092
0.00803055
0.002774312
-0.002650932
0.004856835
0.002684819
-0.004724746
0.002209805
0.002778852
-0.005904286
0.0001899785
0.002751661
-0.006325275
-0.002485426
0.001907399
-0.005174803
0.006331381
0.004643552
-0.007089489
0.003775979
0.005485968
-0.01196127
0.001700084
0.005722078
-0.01490106
2.464899e-05
0.005521667
-0.01618523
-0.001257945
0.004700212
-0.01613637
-0.003176786
0.003188647
-0.0126745
-0.001004036
0.004887777
-0.002331901
0.007576256
-0.001800636
0.01038391
-0.0008535184
0.00124916
0.006527032
0.002113723
0.00102563
0.0008622643
0.005768066
0.001457624
0.001287446
0.00302963
0.0005240512
0.002449395
0.002053065
0.0002236196
0.002832544
0.001932825
0.0005940516
0.001988026
-0.001652497
0.001130333
0.001917659
0.007968087
0.003646566
-0.00250896
0.005100207
0.003478459
-0.004768798
0.002706206
0.003543462
-0.006495476
0.0006686344
0.00368396
-0.00748057
-0.001590049
0.003260272
-0.007346043
-0.004906284
0.002515292
-0.005960597
0.006213827
0.0052041
-0.006774376
0.003862369
0.006133503
-0.01159939
0.001972249
0.006519308
-0.01473075
0.0004344449
0.006565015
-0.01637885
-0.0008701656
0.006123159
-0.01673801
-0.00198035
0.0051977
-0.01616508
-0.004079033
0.003431836
-0.0120273
-0.0001575603
0.004921591
-0.001814627
0.007400135
-0.001841069
0.009669755
-0.001111994
0.002097539
0.006378539
0.00201709
0.001048875
0.001033166
-0.0002940816
0.001543242
0.0006025835
-0.00114258
0.005414533
0.001996938
-0.0001772969
-0.0002130558
0.001415596
0.001366332
-7.760296e-05
0.00139535
0.001328399
0.005756127
0.002300429
0.001369155
0.003258994
0.001276579
0.002376133
0.002525963
0.0007326214
0.002120637
0.002488744
0.00105778
0.0005487068
-0.0006342286
0.001848737
0.0003138029
-0.005324113
0.001916785
0.0004187036
0.007822921
0.0043196
-0.002282127
0.005211959
0.00415594
-0.00453603
0.00308248
0.004215141
-0.006550707
0.001149311
0.004459153
-0.007985534
-0.001214811
0.004272206
-0.008147858
-0.003256354
0.003980115
-0.007534861
-0.006991339
0.003054912
-0.006103202
0.006073282
0.005570108
-0.00643929
0.003909283
0.006603142
-0.0111533
0.002187008
0.007118921
-0.01438601
0.0007871559
0.007351997
-0.01630488
-0.0004779842
0.007182253
-0.01695996
-0.001447541
0.006630338
-0.01672311
-0.002594803
0.005521001
-0.01565944
-0.004481998
0.003344022
-0.01088933
0.0006220941
0.004976474
-0.001056873
0.007422832
-0.001510132
0.009595161
-0.001160757
0.002035135
0.005914406
0.00204091
0.00110187
0.001114941
-0.0001124392
0.002032682
0.0002773678
8.83125e-06
0.006060696
0.002060874
-0.0001562229
-0.0001177739
0.001721974
0.001399754
-0.0001654312
0.001744769
0.001396928
-0.0004667743
-0.0009431736
0.0006306515
-0.003733579
0.006181242
0.001264474
-0.005730073
0.00455602
-0.0005800904
0.001479648
5.972879e-05
-0.0002545932
0.005652832
0.002971263
0.001499256
0.003349333
0.001968052
0.002540309
0.002856049
0.001313607
0.002021579
0.002987339
0.001565052
-0.0002246608
-0.0003881477
0.002391555
-0.0008207727
-0.003398472
0.002630237
-0.0002575296
-0.008224312
0.002239543
-0.0005878658
0.007628071
0.004785469
-0.002020657
0.00524126
0.004684714
-0.004142878
0.003375481
0.004773026
-0.006282387
0.001618823
0.005093739
-0.008016959
-0.0008284492
0.00507184
-0.008434702
-0.002509394
0.004905845
-0.008011734
-0.004700544
0.004562378
-0.006936585
-0.00822928
0.003382853
-0.005738771
0.005921143
0.005764621
-0.006115655
0.003928916
0.006914469
-0.01067953
0.002359738
0.007547491
-0.0139416
0.001086305
0.007930328
-0.01605065
-0.0001264452
0.007962173
-0.01695836
-0.001017392
0.007645478
-0.0169577
-0.001956601
0.00695274
-0.01619825
-0.003041508
0.005584358
-0.01485827
-0.004372792
0.00290628
-0.009422814
0.001264254
0.005010673
-0.0002752467
0.00754418
-0.001004251
0.009773
-0.0009507687
0.002094345
0.005852565
0.002099437
0.001159702
0.001166465
-0.0001547091
0.002033622
3.997903e-05
2.165478e-05
0.005741993
0.002052894
-0.000166693
-0.0002124877
0.001748512
0.001434036
-0.0002117951
0.001735643
0.0014315
-0.001833084
-0.001990694
0.0003836341
-0.0006346526
0.01041298
-0.0006962407
-0.0007307863
-0.0008049346
0.001216677
-0.003403159
0.006113181
6.275326e-05
-0.0004363547
-8.864491e-06
-0.0005221475
-0.001763699
-0.004932224
-8.501834e-05
8.734414e-05
-0.002986325
0.01309941
-0.0001108102
5.944259e-05
-0.002297783
-0.004803919
0.0007253513
-0.007184452
0.006910271
0.00153973
-0.008707714
0.003499692
-0.001168842
0.0008847913
-0.0001408245
-5.517714e-05
0.005497746
0.003453907
0.001647682
0.003352588
0.002546555
0.002809425
0.003089824
0.001853878
0.002285695
0.003375818
0.002028605
-0.000198968
1.316743e-05
0.002642921
-0.001317642
-0.002918948
0.002937268
-0.0007182479
-0.005713722
0.003025277
-3.008355e-05
-0.01007507
0.002493981
-0.001236055
0.007409846
0.005061233
-0.001764466
0.00521882
0.005064375
-0.003690222
0.003593035
0.005205712
-0.00580886
0.00207726
0.005593973
-0.007773577
-0.000361531
0.005728282
-0.008438315
-0.001945013
0.005593356
-0.008194591
-0.003731501
0.005403415
-0.00707787
-0.005971101
0.004939121
-0.005563259
-0.008705582
0.003517414
-0.004923394
0.005769545
0.005839234
-0.005844157
0.003929841
0.007099294
-0.01023032
0.002502785
0.007837429
-0.01347225
0.001344848
0.008342972
-0.0156991
0.0001943534
0.008531041
-0.01681387
-0.000693918
0.008383795
-0.01700276
-0.001485285
0.007923916
-0.0164436
-0.002386345
0.007064306
-0.01529185
-0.003165078
0.005431226
-0.01421813
-0.004020677
0.002266452
-0.007668589
0.00174415
0.00501785
0.000390289
0.007697726
-0.0004575931
0.01008735
-0.0005654086
0.002177917
0.005970735
0.002190743
0.001206697
0.001217367
-0.0001400782
0.00206773
-2.983306e-05
0.0002148685
0.005720677
0.002097918
-0.0001385591
-0.0002130658
0.001755007
0.001473695
-0.00019918
0.00175956
0.001490937
-0.002008251
-0.002017028
5.707799e-05
-0.0006960416
0.01085029
-0.0007033603
-0.0007941806
-0.0007990624
0.0009643177
-0.003202187
0.006277592
-4.746835e-05
-0.0005356105
-8.338797e-05
-0.0005496088
5.348038e-05
0.005500579
-0.005799001
-0.0004747287
0.0008472984
-0.004800865
0.01168874
0.005633445
-0.005840953
6.28267e-05
-0.0004980788
0.0001156664
-0.0006935501
0.005435021
0.000126419
0.005531023
-0.0007132657
0.001802105
-0.006143821
0.006280906
-1.265526e-06
-0.0002022414
2.257971e-05
-0.0002531801
-0.002267762
-0.0001462022
0.01289781
-0.000160614
9.590024e-05
7.509454e-05
-0.002101882
-0.002206604
-0.004602882
-0.004569183
0.0002582711
-0.005518853
0.01117554
0.005710245
4.911804e-06
-0.005911248
-0.0003894474
0.005563832
7.960397e-05
-0.000567299
-0.001623963
0.0002109705
-0.0002770983
-8.736516e-05
0.000954187
-0.009003067
0.006251437
0.001809664
-0.01065922
0.002274181
0.005317488
0.003758122
0.001788143
0.003320637
0.002988291
0.00310413
0.003240538
0.002318386
0.002697415
0.003733184
0.002407674
0.0002507039
0.0004549839
0.002811936
-0.001184497
-0.00241955
0.003078611
-0.0009844466
-0.004949625
0.003374552
0.0001506027
-0.007702466
0.003442675
0.0007525892
-0.01103312
0.002575103
-0.00148362
0.007190947
0.005189262
-0.001549431
0.005166537
0.005315102
-0.003251889
0.003756854
0.005527944
-0.005266523
0.002466367
0.00597485
-0.007311255
0.0001605473
0.006252443
-0.008263931
-0.001520892
0.00618072
-0.008198703
-0.003101707
0.006009017
-0.007183771
-0.004926168
0.005710172
-0.005309097
-0.00674371
0.005094489
-0.003561701
-0.008765753
0.003630614
-0.003808932
0.00562321
0.005844935
-0.005628912
0.003918164
0.007199719
-0.009862746
0.002623449
0.008023235
-0.01303958
0.001577445
0.008631233
-0.01533796
0.0004957987
0.008948196
-0.01661205
-0.0004160272
0.008942643
-0.01695669
-0.001162145
0.008622108
-0.0165388
-0.001893878
0.008004793
-0.0154902
-0.00254296
0.007007106
-0.01432477
-0.003150512
0.005179159
-0.01398033
-0.003732227
0.001928945
-0.005865306
0.002060455
0.005001183
0.0009044014
0.007824375
3.527321e-05
0.0104454
-0.0001066796
0.0022802
0.006275325
0.002292939
0.001253367
0.001259972
-0.0001092822
0.00214864
0.0001123221
0.0004468683
0.005836696
0.002176178
-9.471625e-05
-0.0001796463
0.001792903
0.0015429
-0.0001489917
0.001798481
0.001564409
-0.002025963
-0.002032043
-0.0001806582
-0.0006865312
0.01093651
-0.0006807222
-0.0007772864
-0.0007667941
0.0008072281
-0.002871994
0.006330212
-0.0001050552
-0.0005306006
-0.0001250081
-0.0005211528
5.94618e-05
0.005664617
-0.005844643
-0.0005126506
0.0006000035
-0.004608096
0.0125035
0.005664321
-0.005838839
5.212339e-05
-0.0005215046
9.645751e-05
0.005616354
-0.0007159564
0.0001018889
0.005578258
-0.0007184301
0.00170861
-0.005634985
0.007056448
2.574271e-05
-0.0002738153
1.794898e-05
-0.0002834133
-0.005696325
0.000838298
-0.003759439
0.02060475
0.001235459
-0.006707628
0.01197128
0.005874355
-0.006013222
4.675742e-05
-0.0004010578
0.0001095793
-0.0005652111
0.002287027
-0.008343788
0.006444866
-6.468341e-05
-0.0001728536
2.496201e-06
-0.0002027042
-0.001499781
-0.000181925
0.01256173
-0.0001871637
8.031777e-05
6.55691e-05
-0.001994575
-0.00208292
-0.004516252
-0.00451276
-0.00033459
0.005718723
-1.004286e-05
-0.005909739
0.0003939383
-0.00414325
0.01112827
0.005722887
-0.0002784318
-0.005910103
-2.955637e-05
-0.0005052587
0.005664007
8.857519e-05
0.005641509
-0.0004219543
7.316845e-05
-2.119942e-05
-0.001869712
-0.001993941
-0.0002338624
-8.743691e-05
-0.0003327975
-0.0001073661
-0.0003879586
0.000391789
-0.007248414
0.009029103
0.001239456
-0.01038233
0.004735084
0.001965165
-0.01185708
0.001132976
0.005137083
0.003915286
0.0018967
0.003269752
0.003299417
0.003373802
0.003340063
0.00269414
0.003145168
0.004031314
0.00274058
0.0007995623
0.0009462114
0.003007631
-0.0007306541
-0.001950401
0.003303541
-0.000979918
-0.004384813
0.003600501
7.271135e-05
-0.00676
0.003832285
0.001594826
-0.009061861
0.003609357
0.002036488
-0.01143881
0.002654572
-0.001465137
0.006985178
0.005214843
-0.001387549
0.005102097
0.005465376
-0.002883638
0.003884589
0.005761963
-0.004747047
0.002812511
0.006272666
-0.006799404
0.00071213
0.00665558
-0.007930723
-0.001136641
0.00670811
-0.008070706
-0.002673082
0.006556409
-0.007235158
-0.004285973
0.006245068
-0.00532657
-0.005700594
0.00579368
-0.002850653
-0.007210938
0.005121158
-0.0009918175
-0.008789378
0.003346432
-0.002098212
0.005477102
0.005796174
-0.00542834
0.003895082
0.007236386
-0.009560661
0.002723428
0.008143065
-0.012706
0.001790615
0.008829824
-0.01502878
0.0007868541
0.009255089
-0.01643171
-0.000145308
0.009378403
-0.0169025
-0.00091104
0.009161219
-0.01658476
-0.001585851
0.008653983
-0.01560214
-0.002049015
0.007916922
-0.014351
-0.002474164
0.00685781
-0.01352926
-0.004051581
0.004940364
-0.01294017
-0.005809197
-5.610874e-05
0.002235751
0.004961787
0.001272382
0.007902955
0.0004342088
0.0107655
0.0003409638
0.00238113
0.006666239
0.002396211
0.001291313
0.001294177
-6.148676e-05
0.00224697
0.0003718278
0.0007633626
0.006198669
0.002272049
-4.059598e-05
-0.0001120737
0.001843419
0.001620001
-7.715951e-05
0.001852078
0.001645029
-0.002039765
-0.0020408
-0.0002883694
-0.000640598
0.01091718
-0.0006274697
-0.000720576
-0.0007020092
0.0007938214
-0.002501476
0.006401179
-0.0001276502
-0.0004942226
-0.0001244782
-0.0004795624
3.974277e-05
0.005686428
-0.00584645
-0.000514129
0.0003801992
-0.004417784
0.01270211
0.005691885
-0.0058525
2.44049e-05
-0.000504769
7.163568e-05
0.005643509
-0.0007041132
6.066878e-05
0.005624442
-0.0006883847
0.001623593
-0.005196041
0.007226457
1.299483e-05
-0.0002792804
4.489812e-06
-0.0002733445
6.078882e-05
0.005924233
-0.006039989
-0.0004109263
-0.005782978
-0.005764454
0.0007983267
-0.00355002
0.02172394
0.001125313
-0.006315928
0.01329459
0.005931973
-0.006043278
6.61108e-05
-0.0004155218
0.0001007208
-0.000565843
0.0001137607
-0.0005639516
0.002316509
-0.00761155
0.007878516
2.126151e-05
-0.0002151292
2.583157e-05
-0.0002201224
-0.005832285
-0.005831528
0.0009583262
-0.002796856
0.02144236
0.001038664
-0.005266024
0.01851627
0.001651967
-0.008283094
0.01149807
0.005932691
-0.006047553
-0.0003353837
3.914531e-05
-0.0004924766
0.0001162465
0.002589667
-0.009950564
0.006709067
-8.919734e-05
-0.0001421825
-8.199842e-06
-0.0001623409
-0.0006456405
-0.0001926724
0.01240473
-0.0001932991
7.204683e-05
6.585626e-05
-0.001979992
-0.002023751
-0.004502975
-0.004504082
-0.0002291788
0.00571986
-0.00591546
-3.557836e-05
0.0004000575
-0.002810059
0.01082848
0.005721141
-0.0001797169
-0.005918285
-3.94812e-05
-0.000353238
0.005657954
7.350806e-05
0.005643136
-0.0002796184
6.995415e-05
-0.0001999506
-0.002028486
-0.002051058
-0.0002318119
-9.001868e-05
-0.000396723
-7.597013e-05
-0.0004069094
0.0003990357
-0.005667476
0.009148296
-0.0001112165
-0.00012334
0.005952055
-0.006069977
-0.0002779688
3.095033e-05
-0.0004097743
0.0001109936
0.0007133736
-0.008658041
0.006591444
0.001425666
-0.01145156
0.002903901
0.0021047
-0.01257659
0.0001660604
0.004972834
0.003965043
0.001962587
0.003215506
0.003501008
0.003581701
0.003413872
0.002985503
0.003553157
0.004300959
0.003035334
0.001361967
0.00146631
0.00325001
-0.0001969955
-0.001418793
0.003611132
-0.0007560907
-0.003961365
0.003881886
2.698267e-05
-0.006187236
0.004093112
0.001713148
-0.008035503
0.004015898
0.003523196
-0.009992035
0.003580027
0.003892131
-0.01175367
0.001733545
-0.0002343894
0.006796782
0.005159574
-0.001264411
0.005037776
0.005528099
-0.002592965
0.003991028
0.005924232
-0.004313508
0.003126905
0.006511065
-0.006321736
0.00124164
0.006992214
-0.007590824
-0.0007170529
0.007211211
-0.007862078
-0.002293458
0.007093181
-0.00722506
-0.00390878
0.006760064
-0.005427224
-0.005093547
0.00626873
-0.002757086
-0.006257747
0.005661939
0.0003921507
-0.007732603
0.004547215
5.186165e-05
0.0004562901
0.0002238442
0.0007564279
-0.01068404
0.001385695
0.00108839
-0.0009207643
0.00216804
0.0009127027
-0.0001852711
-0.001560411
-0.000111744
0.005323993
0.005670742
-0.005198561
0.003861661
0.007191212
-0.009244827
0.002800196
0.008199189
-0.01241698
0.001979365
0.008975847
-0.01483139
0.001068421
0.009483971
-0.01632608
0.0001601128
0.009715512
-0.01692893
-0.0006780857
0.009608018
-0.01667121
-0.001372435
0.009162541
-0.01572088
-0.001779809
0.008501651
-0.01440706
-0.001940744
0.007714929
-0.01326738
-0.003193754
0.006721456
-0.01211659
-0.002125013
-0.001419408
-0.004334022
0.005418785
-0.002669331
-0.002233214
-0.001387554
-0.002726863
-0.001519654
0.002309392
0.004899194
0.001514641
0.007935034
0.0007398185
0.01101122
0.0007296084
0.002472809
0.007063525
0.002492321
0.001323845
0.001325318
-1.094565e-05
0.00235148
0.0006852812
0.001138095
0.006681001
0.002374074
1.119094e-05
-3.363972e-05
0.001898432
0.001700841
-1.084236e-06
0.001908938
0.001726759
-0.002058648
-0.002057687
-0.0002698293
-0.0005735394
0.01093815
-0.0005548364
-0.0006387029
-0.0006144136
0.0009256154
-0.001990054
0.006638136
-0.000113714
-0.0004494112
-9.682353e-05
-0.000429549
1.803614e-05
0.005708371
-0.0058602
-0.0004824008
0.0002311263
-0.004139915
0.0127047
0.005717556
-0.005868637
5.502335e-06
-0.0004638549
4.17985e-05
0.005665013
-0.0006583475
3.333339e-05
0.005656548
-0.0006325364
0.001620552
-0.004828145
0.007271
2.707669e-06
-0.0002605521
-3.713411e-06
-0.0002492745
6.013524e-05
0.005950754
-0.006049236
-0.0004096711
-0.005817278
-0.005807069
0.000660856
-0.003406007
0.02201799
0.0009870369
-0.005993589
0.01363793
0.005953808
-0.006051944
5.421672e-05
-0.0004007146
9.600685e-05
-0.0005528831
9.239826e-05
-0.0005380365
0.002326394
-0.007147224
0.008176562
2.439199e-05
-0.000217931
2.156158e-05
-0.0002134788
5.864223e-05
0.006002313
-0.006090221
-0.0003425151
-0.005940047
-0.00592533
-0.00595097
0.0009707482
-0.002559821
0.02275656
-0.005942832
0.001105176
-0.004885312
0.02022681
0.001618192
-0.007706169
0.01342298
0.006017568
-0.006099729
6.958154e-05
-0.0003443003
0.0001053305
-0.0004926604
0.0001232181
-0.0004896008
0.002705905
-0.009096419
0.008823195
1.729453e-05
-0.0001705695
2.681075e-05
-0.0001729031
-0.005849336
-0.005843755
0.001027218
-0.001913417
0.02148358
0.001158202
-0.003997167
0.01941434
0.001372694
-0.00664116
0.01621502
0.001960218
-0.009617728
0.01063069
0.00262781
-0.01122178
0.007415707
-1.654711e-05
-0.0001327803
0.0003424035
-0.0001937674
0.01221361
-0.0001882789
6.742691e-05
7.422811e-05
-0.001979383
-0.001977175
-0.004501769
-0.004502937
-0.0001282266
0.005712279
-0.005918308
-3.813366e-05
0.0004728705
-0.001428826
0.01055063
0.005708058
-7.609868e-05
-0.005918291
-3.519375e-05
-0.0002039248
0.005633228
7.540406e-05
0.005618942
-0.0001281134
7.916082e-05
-0.0001564674
-0.002055336
-0.002055087
-0.0001251312
-5.426909e-05
-0.0004063962
-3.307478e-05
-0.000405794
-0.0001001477
-0.0001164189
-0.0002244828
0.005964058
-0.006083266
3.01435e-05
0.0004052499
-0.00416441
0.008920163
-7.919909e-05
-0.0001202721
0.005968049
-0.0001730149
-0.006090072
3.107336e-05
-0.0003388898
0.000117346
-0.0002647681
0.0001201268
0.0006780171
-0.007003403
0.006815641
0.006032538
5.788846e-05
-0.006121357
-0.0002806341
0.00010811
-0.0004082086
0.0009871558
-0.009814843
0.003967571
0.001485079
-0.01228365
0.001125886
0.0008813472
-0.01319194
0.0007229847
0.00483408
0.003938135
0.001989612
0.003172306
0.00361203
0.003717036
0.00348357
0.003203622
0.00387104
0.00455113
0.003296542
0.001867725
0.001982805
0.003522676
0.000348136
-0.0008381964
0.003944442
-0.0004091613
-0.003470992
0.004230135
7.319574e-05
-0.005845968
0.004408726
0.001648557
-0.007487843
0.004310453
0.00381289
-0.009030452
0.003928759
0.005947169
-0.01091422
0.002933503
0.001246069
0.001445693
0.001497915
0.001684111
-0.01432233
0.00057
0.0004561164
0.0007664379
0.0004635097
0.0003292369
4.231942e-05
0.0003421389
0.0004341412
0.006629088
0.005017789
-0.00116331
0.004985084
0.005494768
-0.002354502
0.004086959
0.006002864
-0.003958359
0.003418708
0.006695211
-0.005936996
0.001742723
0.007279297
-0.00728312
-0.000198933
0.00766995
-0.007690516
-0.001894083
0.007634335
-0.007187234
-0.003591124
0.007299085
-0.00554539
-0.004797479
0.006752227
-0.002893051
-0.00573399
0.006077439
0.0006206608
-0.006808819
0.004930448
0.0005235853
0.001182793
0.0006441958
0.001273409
-0.001963655
0.001288455
-1.225576e-05
0.001042257
0.0009857844
-0.002447017
-0.001594441
0.00037365
0.001313682
-0.002233743
0.001026338
0.001411649
-0.001929896
0.001009132
-0.002897793
0.001459107
-0.0007395519
-0.00310745
0.00106318
0.001044964
0.001012038
-0.003127205
-0.002787959
0.00223668
-0.003830165
0.0019425
0.005167125
0.005415435
-0.004911818
0.003823093
0.007030363
-0.008860805
0.002859906
0.008152158
-0.0120577
0.002134592
0.009054869
-0.01463059
0.001324628
0.009672824
-0.01634487
0.0004869054
0.009985009
-0.01708249
-0.0003963199
0.00998781
-0.0169124
-0.00118004
0.009616307
-0.01594494
-0.001639941
0.008966161
-0.01454545
-0.001717731
0.008224418
-0.01319882
-0.002472987
0.007497135
-0.01157007
-0.001202502
-0.001094705
0.006969368
-0.00291354
-0.00164766
-0.00145469
-0.001425963
-0.002506321
-0.001421796
-0.002402608
-0.0002667222
-0.00259643
0.001445702
0.0007502705
0.0007166953
-0.004506857
-0.004589697
0.001596112
0.001166927
-0.006559582
0.002325505
0.004817967
0.001664024
0.007922117
0.0009674999
0.01119092
0.001066005
0.002549611
0.007390314
0.002574413
0.001355132
0.001356481
3.486998e-05
0.00244913
0.0009985623
0.001555996
0.007177054
0.002471039
5.615212e-05
4.257168e-05
0.00194862
0.001780699
6.720638e-05
0.00196459
0.001807133
-0.002078128
-0.002074776
-0.0001447759
-0.0004894495
0.01097099
-0.0004659117
-0.000536014
-0.0005063013
0.00116577
-0.001379803
0.006982454
-7.705713e-05
-0.0003970536
-5.190543e-05
-0.0003731684
4.361953e-06
0.005736085
-0.005875969
-0.0004325151
0.0001961321
-0.003741458
0.01272455
0.005748446
-0.005885751
-5.908789e-06
-0.0004072604
2.365425e-05
0.005698151
-0.0005910894
1.705147e-05
0.005697822
-0.0005571867
0.001735203
-0.004324556
0.00737705
-3.723755e-06
-0.0002325067
-8.378865e-06
-0.0002175663
4.869448e-05
0.005963761
-0.006056153
-0.0003844868
-0.005833955
-0.005830318
0.0005561593
-0.003192475
0.02214309
0.0008863855
-0.005712312
0.01368952
0.005968461
-0.006059777
4.428632e-05
-0.0003681298
7.997905e-05
-0.0005161222
7.846607e-05
-0.0004928803
0.002402266
-0.006834478
0.00818364
1.96195e-05
-0.0002054399
1.733001e-05
-0.0001971022
6.78422e-05
0.006038286
-0.006106963
-0.0003392543
-0.005979513
-0.005968344
0.0008948402
-0.002424869
0.02303077
-0.005998218
-0.005989925
0.001025992
-0.004608358
0.02071194
0.001569812
-0.007330595
0.01386968
0.006040962
-0.006108948
6.582476e-05
-0.000330711
0.0001087163
-0.0004796084
0.0001091342
-0.0004658365
0.002807913
-0.008659884
0.009246596
2.807972e-05
-0.0001708431
2.761371e-05
-0.0001667018
-0.005977531
-0.00597845
0.001113931
-0.001650552
0.02290273
-0.005968897
-0.005973835
0.001298337
-0.003567955
0.02129907
-0.006052924
0.000131476
-0.0004028748
0.001443331
-0.006075639
0.01852564
0.001996659
-0.008883804
0.01317393
-0.006134448
7.470008e-05
-0.0002795879
0.002764249
-0.01037228
0.01002858
1.526513e-05
-0.0001360169
2.877915e-05
-0.0001360608
-0.005831401
-0.005822232
0.001170599
-0.0009825328
0.02127719
0.001271272
-0.002875591
0.01949598
0.001473292
-0.005146177
0.01712408
0.001664692
-0.007866096
0.01378585
0.001982146
-0.01087024
0.00978208
0.001963073
-0.01282318
0.001934282
0.002011231
0.002111571
0.002185862
-0.0001050007
-1.848071e-05
0.001769119
-0.0001671289
0.011654
-0.0001478874
8.244269e-05
0.000111947
-0.001995976
-0.001963253
-0.00449501
-0.004505852
-1.681745e-05
0.005690499
-0.005913744
-2.980317e-05
0.000548193
0.0002215025
0.01001509
0.005677748
4.715912e-05
-0.005910757
-1.924635e-05
-3.831548e-05
0.005581268
8.686032e-05
0.005560819
5.269466e-05
0.0001001468
-5.117788e-05
-0.002053337
-0.002046438
1.808499e-05
-1.040504e-05
-0.0004030526
1.17395e-05
-0.0003971486
-5.576057e-05
-0.0001192437
-0.0001202763
0.005964296
-0.006091568
3.639998e-05
0.0005439822
-0.00266034
0.008502575
-3.264249e-05
-0.0001173714
0.005960162
-6.691228e-05
-0.006091529
4.280943e-05
-0.0001888471
0.0001323777
-0.0001136485
0.0001418921
-0.0002235984
0.006051174
6.068514e-05
-0.006138751
0.0007284641
-0.005499762
0.006688058
-8.000781e-05
-1.885017e-05
0.006058978
-0.0001689992
-0.00614748
6.497595e-05
-0.0003329031
0.0001156834
0.0001233199
-0.0002555676
0.0009883075
-0.008128569
0.004141059
0.001044387
-0.01070623
0.001345761
-0.0003146374
-0.01325732
0.001505904
0.0002363973
9.609987e-05
-0.01595883
0.0009350412
9.270427e-05
-0.0001206912
9.275983e-05
0.0004734792
0.0005536899
0.004728872
0.003858294
0.001980057
0.00315493
0.003646206
0.00378559
0.00356376
0.003348894
0.004094964
0.004805759
0.003528837
0.002251694
0.002472294
0.003806555
0.0008542762
-0.0001297532
0.004269595
-4.619603e-05
-0.002895327
0.00464219
0.0001800299
-0.005466368
0.004794244
0.001562923
-0.007241
0.00466883
0.003733702
-0.008582924
0.00425917
0.006331413
-0.01000635
0.00337428
0.002028219
0.002246912
0.002112422
0.002316371
-0.002856006
0.0007225156
0.001502543
0.0005754162
0.001767486
-0.003297098
-0.002652796
0.0007446282
0.001894856
-0.003114829
0.0006033049
0.002118255
-0.003246078
0.0008853112
-0.003549913
0.0007539112
0.001654605
-0.003875748
0.0005495095
0.001873049
0.0007687715
-0.00397253
-0.004365087
0.001762372
-0.004710177
0.001548002
0.006506827
0.004752059
-0.001073971
0.004957447
0.005360228
-0.002163124
0.004189854
0.005967028
-0.003648615
0.003700408
0.006790127
-0.005619092
0.002227194
0.007514491
-0.007074755
0.0004127306
0.00804809
-0.007587086
-0.001417197
0.008164284
-0.007199588
-0.003237477
0.007867378
-0.00569809
-0.004591594
0.007274327
-0.003115836
-0.005560226
0.006540311
0.0004865734
-0.006382365
0.005397074
0.0006796162
0.001336035
0.0007069673
0.001340795
-0.001341159
0.001295921
0.0006800031
0.001025474
-0.001979516
0.001822015
-0.001225042
0.0007880444
0.00128241
-0.001875606
0.001034839
0.001914607
-0.003010177
0.001063285
0.001825291
-0.007388864
0.001526182
-0.008538091
0.001293358
0.005018472
0.004971645
-0.004574682
0.003797558
0.006719847
-0.008398859
0.002915135
0.007960518
-0.0115843
0.002269955
0.009005618
-0.01427841
0.001534814
0.009788586
-0.01628117
0.000785352
0.0102292
-0.01737442
-7.002918e-05
0.01031077
-0.01733542
-0.0009319873
0.01003335
-0.01639745
-0.001529086
0.009413876
-0.01486357
-0.001667494
0.008655437
-0.01330898
-0.002297669
0.007941725
-0.01134574
-0.0009316635
-0.0008886119
0.007448769
-0.002784599
-0.001250557
-0.001231711
-0.001330496
-0.002314047
-0.001317785
-0.003449307
0.002131879
0.001315328
-0.002160215
0.001322932
-0.001942685
0.001232667
0.001358701
0.001415538
-0.005123881
-0.002735473
0.002361032
0.001473832
-0.004215563
-0.008275226
0.001153506
0.002345274
0.004709104
0.001765811
0.00787111
0.00113391
0.01131947
0.001374337
0.002616826
0.007634858
0.002652618
0.001390038
0.00139401
7.435909e-05
0.002531404
0.001355033
0.00203848
0.007467659
0.002554062
9.470965e-05
0.0001094504
0.001982956
0.001861337
0.0001307437
0.00199982
0.001889431
-0.00209365
-0.002088654
6.608711e-05
-0.0003902552
0.01098523
-0.0003616082
-0.0004143381
-0.0003783779
0.001524609
-0.0006589734
0.007347436
-2.650652e-05
-0.0003383505
2.11494e-06
-0.0003101421
-2.049967e-06
0.005767328
-0.005892165
-0.0003684718
0.000288296
-0.003232145
0.01273117
0.005781946
-0.005902878
-9.853339e-06
-0.000337176
1.574976e-05
0.005737971
-0.0005053556
1.255715e-05
0.005742571
-0.0004637334
0.00197667
-0.003692561
0.007538222
-6.634519e-06
-0.0001977355
-9.76693e-06
-0.0001796016
4.141906e-05
0.005980209
-0.00606443
-0.0003454276
-0.005858961
-0.005861077
0.0005070537
-0.002901389
0.02232505
0.0008892022
-0.005341053
0.01373823
0.00598705
-0.006068672
3.944051e-05
-0.0003236596
7.106628e-05
-0.0004624407
7.211939e-05
-0.0004322674
0.002580391
-0.006448362
0.008180919
1.637484e-05
-0.000186101
1.528378e-05
-0.0001751455
6.295884e-05
0.006047565
-0.006111181
-0.0003180043
-0.005987855
-0.005981388
0.0008594505
-0.002245022
0.02306731
-0.006007558
-0.006002569
0.0009572983
-0.004350852
0.02085033
0.00155358
-0.007053994
0.01392526
0.006049394
-0.006112579
6.164973e-05
-0.000303636
0.0001002173
-0.000447495
0.0001019838
-0.000426641
0.002988689
-0.00844121
0.009203075
2.690691e-05
-0.0001604623
2.62831e-05
-0.0001534118
0.006075548
7.700292e-05
-0.006143018
-0.0002740876
0.00108665
-0.001494936
0.02319404
-0.006025713
-0.006031432
-0.006015713
-0.006023831
0.001272471
-0.003306469
0.02175475
0.0001227756
-0.000393578
-0.006079084
0.0001266801
-0.0003805818
0.001432938
-0.005709429
0.01910117
0.002028012
-0.008490878
0.01366933
-0.00614526
7.834618e-05
-0.000265878
0.002990853
-0.00998832
0.01042539
3.230494e-05
-0.0001335766
3.364575e-05
-0.0001296681
-0.005977732
-0.005973042
0.001293615
-0.0007049431
0.02282687
-0.005973102
-0.005971623
0.001493274
-0.002404391
0.02151717
-0.0003253111
-0.006073912
0.0001431342
-0.006083555
0.0001533389
-0.0002456104
0.001616551
-0.00451146
0.01959163
0.001754074
-0.007094044
0.0166465
0.002078995
-0.01005896
0.01276376
-0.006153432
-0.0002201922
8.080957e-05
0.002354151
-0.0118403
0.002785105
0.002918356
0.002830062
0.002937934
1.582346e-05
-0.0001057778
3.13634e-05
-0.0001044339
-0.005780781
-0.005765797
0.001352449
0.0001227721
0.0207791
0.001504598
-0.001745993
0.01918698
0.00164076
-0.003874257
0.01731177
0.001763739
-0.006146516
0.01462907
0.001665557
-0.008914054
0.01120849
0.001283112
-0.01268088
0.002276338
0.001680594
0.002309031
0.001776064
-0.00360958
0.0003907744
0.002092387
0.0002302987
0.002294456
-0.004027004
-0.003442806
0.0004358986
0.002394424
0.0003060372
-0.003846804
0.002514121
0.004695905
-0.0001049499
0.01005591
-2.049086e-05
0.0001012889
0.0002023077
-0.00216298
-0.001880072
-0.004536777
-0.004581023
0.0001404147
0.005638275
-0.005898588
-7.123618e-08
0.0007098326
0.002294088
0.008871584
0.005608166
0.0002528841
-0.005896422
2.789944e-05
0.0001911336
0.005460915
0.0001213638
0.005419908
0.0003359186
0.0001554201
5.976922e-05
-0.00203766
-0.002000784
9.730092e-05
3.975619e-05
-0.0003868089
7.064821e-05
-0.000362953
-5.984279e-06
-0.0001136593
-5.382112e-06
0.005942954