/*--------------------------------*- C++ -*----------------------------------*\
  =========                 |
  \\      /  F ield         | OpenFOAM: The Open Source CFD Toolbox
   \\    /   O peration     | Website:  https://openfoam.org
    \\  /    A nd           | Version:  8
     \\/     M anipulation  |
\*---------------------------------------------------------------------------*/
FoamFile
{
    version     2.0;
    format      ascii;
    class       volVectorField;
    location    "1000";
    object      U;
}
// * * * * * * * * * * * * * * * * * * * * * * * * * * * * * * * * * * * * * //

dimensions      [0 1 -1 0 0 0 0];

internalField   nonuniform List<vector> 
60977
(
(0.1237392 -0.03624285 -0.1779359)
(0.2686195 -0.06053852 -0.05258347)
(0.1381037 -0.002664261 -0.2844234)
(0.008155088 0.03115657 -0.3229669)
(0.2359895 -0.05676715 0.03967935)
(0.2884233 -0.04062191 -0.1287196)
(0.1810661 0.000975327 0.02572954)
(0.1568378 0.05893987 -0.3053468)
(0.03834767 0.07531354 -0.414162)
(-0.05088075 0.05125569 -0.4846326)
(0.1688557 -0.07132194 0.1265977)
(0.2760114 -0.05164213 -0.02375093)
(0.1228482 -0.01521528 0.1872457)
(0.3085604 0.001573639 -0.1468051)
(0.1718997 0.02628584 -0.07620117)
(0.07181853 0.02890859 -0.007635998)
(0.1699481 0.1133941 -0.303752)
(0.0574737 0.13363 -0.4418361)
(-0.01275266 0.1101301 -0.5680959)
(-0.0777707 0.06817865 -0.5607613)
(0.2184459 -0.07990448 0.08507271)
(0.08303577 -0.05329444 0.2910661)
(0.3053709 -0.03720253 -0.0408344)
(0.1373706 -0.01080772 0.1317281)
(0.05581909 -0.002065843 0.2356935)
(0.3222899 0.05038684 -0.1480096)
(0.182026 0.05497168 -0.1170162)
(0.07328958 0.06006361 -0.1472906)
(-0.0516052 0.04442294 -0.1241746)
(0.1771342 0.1624347 -0.2952053)
(0.07215306 0.1812598 -0.4450985)
(0.007539158 0.178366 -0.5996742)
(-0.0383477 0.1405962 -0.6508984)
(-0.10087 0.08163743 -0.6091878)
(0.2480181 -0.08794701 0.07160237)
(0.1268229 -0.06123324 0.2631107)
(0.04714838 -0.0521825 0.3815263)
(0.3260388 0.0004765055 -0.04330322)
(0.1571126 -0.01353855 0.1053456)
(0.06749528 0.0008087532 0.1555537)
(0.01465874 0.00597923 0.227376)
(0.32759 0.09557893 -0.1425857)
(0.1942062 0.08771588 -0.1339247)
(0.08691896 0.09190568 -0.2000452)
(-0.01444596 0.08994374 -0.230195)
(-0.1312591 0.05255534 -0.2039326)
(0.1805234 0.2029743 -0.2829853)
(0.0824485 0.2215503 -0.438008)
(0.02330371 0.2281258 -0.6063272)
(-0.01888102 0.2149023 -0.6866176)
(-0.05623726 0.1648424 -0.695739)
(-0.1234435 0.09315606 -0.6249367)
(0.2686992 -0.05944756 0.06944766)
(0.1496459 -0.08835976 0.255311)
(0.0845662 -0.05556136 0.3495485)
(0.0736981 -0.03178025 0.3784594)
(0.334379 0.04118814 -0.03824839)
(0.1777785 0.007340104 0.09160952)
(0.0841565 0.0003717499 0.1151448)
(0.03957197 0.01841067 0.1411045)
(-0.08794443 0.022925 0.1295993)
(0.3278558 0.1354511 -0.1341323)
(0.2031044 0.1195451 -0.135751)
(0.1041817 0.1225109 -0.2234361)
(0.01033159 0.1285356 -0.2730973)
(-0.07605693 0.1108485 -0.2936605)
(-0.2065562 0.06996193 -0.2562119)
(0.1814512 0.2342162 -0.2685652)
(0.08965924 0.2537514 -0.4246618)
(0.03537553 0.2673723 -0.6009712)
(-0.003311164 0.266624 -0.6960946)
(-0.03673296 0.2426255 -0.7290291)
(-0.07120327 0.1861367 -0.7119233)
(-0.1388466 0.09829735 -0.6068405)
(0.2774064 -0.02465094 0.07130663)
(0.1674793 -0.07513522 0.253197)
(0.103655 -0.07939637 0.3406531)
(0.09663985 -0.025106 0.3445652)
(0.08853391 -0.0420836 0.3906188)
(-0.03310051 0.0007047513 0.2641297)
(0.08226103 -0.04164326 0.3920159)
(0.1939227 -0.02578563 0.3240091)
(0.1667287 -0.02470835 0.3560048)
(0.3345002 0.07791285 -0.03086066)
(0.1895996 0.03316168 0.09014906)
(0.1064963 0.01814233 0.09329703)
(0.05846426 0.0294365 0.08602758)
(-0.06244475 0.06497325 0.03239086)
(-0.2315517 0.04287095 0.04289822)
(0.3245561 0.1677581 -0.12406)
(0.2090373 0.1480457 -0.1285931)
(0.1191138 0.1497664 -0.2268136)
(0.03356469 0.1619558 -0.2957923)
(-0.04675908 0.1567713 -0.3325932)
(-0.1247602 0.1422444 -0.320742)
(-0.2713166 0.08504911 -0.2738299)
(0.1807225 0.256007 -0.2532951)
(0.09477301 0.2778689 -0.4072906)
(0.0448054 0.2974929 -0.5873974)
(0.009359489 0.3059488 -0.6937399)
(-0.02198842 0.2962009 -0.743306)
(-0.04965022 0.2668173 -0.7441644)
(-0.08312823 0.1987301 -0.6998795)
(-0.1392431 0.09180194 -0.5620146)
(0.2769024 0.01206131 0.07607265)
(0.1753944 -0.0518738 0.2538231)
(0.1215879 -0.06928908 0.33955)
(0.111064 -0.04510933 0.3281058)
(0.09527677 -0.02689926 0.3750044)
(0.026728 0.0286774 0.2619462)
(0.09694407 -0.03009767 0.3785158)
(0.1851231 -0.008349882 0.3547549)
(0.1866022 -0.02191923 0.3623774)
(-0.1451828 -0.02296815 0.1673552)
(-0.2310475 0.0178367 0.2147718)
(0.3592104 -0.07143293 0.1934765)
(0.08645532 -0.0617634 0.3021462)
(0.3292051 0.1087611 -0.02278723)
(0.1959109 0.05902346 0.09466168)
(0.1231731 0.03794406 0.09071882)
(0.07944074 0.05073758 0.05337776)
(-0.06088827 0.0885038 -0.03314378)
(-0.1607717 0.1081126 -0.009479366)
(-0.3568163 0.05264261 -0.0006564124)
(0.3187523 0.1914658 -0.1134575)
(0.2123986 0.1712868 -0.116185)
(0.131561 0.1733872 -0.217446)
(0.05330266 0.1890228 -0.2990117)
(-0.02224325 0.1931488 -0.348269)
(-0.08683494 0.1878323 -0.3459837)
(-0.1672248 0.1675545 -0.3112628)
(-0.3082243 0.09519626 -0.2709792)
(0.1789685 0.2688949 -0.2385116)
(0.09847396 0.2945856 -0.3882733)
(0.05229605 0.3194624 -0.5683167)
(0.01993676 0.3352939 -0.6826546)
(-0.009946032 0.3358906 -0.7470779)
(-0.03384748 0.3195871 -0.7588044)
(-0.06125424 0.2825238 -0.7323342)
(-0.09183412 0.1967157 -0.6678708)
(-0.1257813 0.07356617 -0.4972892)
(0.269926 0.04229363 0.08179671)
(0.1770535 -0.02301667 0.2569907)
(0.1316554 -0.05260147 0.3441467)
(0.1247956 -0.03769684 0.3244445)
(0.1051542 -0.04527548 0.3678834)
(0.03644594 0.0006817498 0.2440242)
(0.1080005 -0.04606744 0.3725748)
(0.1959261 -0.03572245 0.3549772)
(0.1986002 -0.03826697 0.359742)
(-0.08290386 0.03557671 0.3601247)
(-0.1176475 0.07103071 0.2523431)
(0.044066 0.02612825 0.3930644)
(0.02439988 0.001656714 0.4322109)
(-0.1396094 -0.1040849 0.5459762)
(-0.3271646 -0.01608016 0.2987706)
(-0.3774082 0.02522579 0.1916699)
(0.2547999 -0.2303454 0.3583837)
(-0.04483638 -0.09086229 1.004297)
(0.3210159 0.1321603 -0.01469069)
(0.1983454 0.0817356 0.1015306)
(0.1358308 0.05847127 0.09907672)
(0.09889988 0.06834943 0.04690962)
(-0.0493694 0.105685 -0.06261853)
(-0.1366903 0.1171572 -0.04049601)
(-0.2404353 0.1255515 -0.006278223)
(-0.4323002 0.06246959 -0.04173045)
(0.3114728 0.2066707 -0.1032928)
(0.2137473 0.1886618 -0.1016795)
(0.1416808 0.1921958 -0.2001976)
(0.07046369 0.2112586 -0.2890435)
(-0.002787865 0.2218551 -0.3495735)
(-0.06008433 0.2208913 -0.356537)
(-0.1228504 0.2117351 -0.324949)
(-0.1996202 0.1825236 -0.2683366)
(-0.3149357 0.09985386 -0.2442048)
(0.176623 0.2747139 -0.2258299)
(0.1012207 0.3049507 -0.3699069)
(0.05844759 0.3347401 -0.5470244)
(0.02880051 0.356388 -0.6658383)
(0.0005494878 0.3649136 -0.7415375)
(-0.02180571 0.357087 -0.7639901)
(-0.04423081 0.3339701 -0.7485389)
(-0.0722201 0.2875628 -0.6985788)
(-0.1016978 0.1811099 -0.6303432)
(-0.111089 0.04988535 -0.4207058)
(0.2606539 0.0664342 0.08651291)
(0.1740968 0.003628133 0.2612307)
(0.1370211 -0.02973707 0.3523484)
(0.1340163 -0.02810303 0.331919)
(0.1155988 -0.04144233 0.3710142)
(0.05077288 -0.002053903 0.2469232)
(0.1172082 -0.04228305 0.3763973)
(0.2054164 -0.03602996 0.3638058)
(0.2069857 -0.03854905 0.3707211)
(-0.08531102 0.0008475057 0.3798038)
(-0.1053442 0.04059777 0.2467004)
(0.02588773 -0.00760677 0.4288906)
(0.02346963 -0.01227321 0.4341137)
(-0.1072544 0.004686411 0.9696329)
(-0.2037988 0.05527314 0.4754821)
(-0.1153522 0.0001964771 0.9880847)
(-0.1436715 0.0173697 0.919458)
(-0.1504889 0.006233909 0.957954)
(-0.2454351 0.09189449 0.2712179)
(-0.0704814 -0.007761416 1.035988)
(-0.07955414 -0.002655081 1.039087)
(-0.1308589 -0.1275628 0.4837552)
(-0.2795127 -0.0568022 0.5192812)
(-0.07202961 -0.008566368 1.007401)
(-0.10882 0.009241253 0.9678901)
(0.1231492 -0.3575563 0.5557041)
(-0.01321181 -0.120664 1.007963)
(-0.4196616 -0.003714342 0.3194067)
(-0.4722279 0.03616567 0.1358184)
(0.3115816 0.147921 -0.007200363)
(0.1981364 0.09989383 0.1089137)
(0.144658 0.07662991 0.1123119)
(0.1177888 0.08386464 0.05756959)
(-0.02595044 0.1112056 -0.05220517)
(-0.1148244 0.1263825 -0.05518488)
(-0.2013723 0.134374 -0.01628723)
(-0.3142624 0.1393693 0.01455569)
(-0.4662201 0.06860217 -0.06578937)
(0.3036776 0.2146409 -0.09458678)
(0.2136369 0.2005504 -0.08753821)
(0.1499502 0.20645 -0.1799469)
(0.08566628 0.2280766 -0.2696411)
(0.01409485 0.2461929 -0.3426668)
(-0.04211957 0.2463057 -0.3576185)
(-0.09467954 0.2416069 -0.3332123)
(-0.1524808 0.2265476 -0.2658603)
(-0.2091632 0.1878878 -0.1955365)
(-0.3038861 0.09974073 -0.1967522)
(0.1738637 0.276264 -0.2157565)
(0.1031466 0.3107505 -0.3546415)
(0.0636264 0.3446222 -0.5265517)
(0.03644292 0.3713515 -0.647226)
(0.009812017 0.3859417 -0.7302976)
(-0.01217689 0.3850428 -0.7632724)
(-0.03150515 0.3694165 -0.7566446)
(-0.053947 0.3389222 -0.7145014)
(-0.08477402 0.2837698 -0.6535591)
(-0.1308427 0.1586518 -0.6061102)
(-0.1129439 0.03344089 -0.3346154)
(0.2507142 0.08349414 0.09004491)
(0.1689193 0.02502094 0.2635768)
(0.138778 -0.007779794 0.3617981)
(0.1411379 -0.01185483 0.3458205)
(0.1231847 -0.03324612 0.3834784)
(0.05888105 -0.0003488216 0.2537552)
(0.1247182 -0.03352345 0.3880863)
(0.2126362 -0.03156898 0.3813429)
(0.2140307 -0.03241695 0.387167)
(-0.07584664 -0.006393841 0.3830873)
(-0.08763528 0.03670398 0.2469622)
(0.03113277 -0.01551459 0.4321961)
(0.03504193 -0.02071331 0.4336362)
(-0.1178676 0.004635918 0.9943278)
(-0.1984423 0.02006682 0.4994391)
(-0.1194571 0.004747231 0.9964682)
(-0.1498842 0.01041562 0.9647329)
(-0.1505894 0.01032524 0.9684445)
(-0.2204251 0.06915864 0.2861095)
(-0.0834433 0.001200343 1.040716)
(-0.08542926 0.001389528 1.041336)
(-0.1958922 0.03748658 0.9214917)
(-0.2961342 0.06988377 0.5254314)
(-0.07511628 -0.004557711 1.033944)
(-0.1076526 0.002936304 1.010066)
(-0.3456684 0.1064837 0.2769095)
(-0.03471889 -0.02779149 1.056612)
(-0.04165653 -0.00885617 1.065773)
(-0.08926915 -0.1346009 0.4538371)
(-0.06432831 -0.01016112 1.007875)
(-0.2223279 -0.06227076 0.5016978)
(-0.05230004 -0.01483869 1.006345)
(-0.09817735 0.01527909 0.9676088)
(-0.08214179 0.01189464 0.9688108)
(-0.01597334 -0.404728 0.5965196)
(-0.0181448 -0.433465 0.6106253)
(-0.01803263 -0.1335119 0.9948096)
(-0.0182605 -0.1471874 0.9911102)
(-0.3661409 -0.03097964 0.4706726)
(-0.4850135 0.01186746 0.2583819)
(-0.5251501 0.04596778 0.07465119)
(0.3021059 0.1569073 -0.001013576)
(0.196461 0.1131591 0.1155446)
(0.1507334 0.09177534 0.126617)
(0.1325487 0.0970002 0.07612241)
(0.003249345 0.11739 -0.02457541)
(-0.09543572 0.1324669 -0.05522577)
(-0.1753581 0.1478136 -0.02652067)
(-0.2697987 0.1531626 0.03544486)
(-0.3616869 0.1426656 0.05745485)
(-0.4764803 0.07161361 -0.06294343)
(0.2959381 0.2175078 -0.08781661)
(0.2126207 0.2080368 -0.07577177)
(0.1567726 0.2168751 -0.1602236)
(0.09965798 0.2410528 -0.2471329)
(0.03043711 0.2644797 -0.3265012)
(-0.02752497 0.2691891 -0.3512793)
(-0.07723286 0.2646414 -0.3363078)
(-0.1240903 0.2533659 -0.2702199)
(-0.1628487 0.2313225 -0.1756642)
(-0.1985234 0.1908819 -0.1025689)
(-0.2904593 0.07313668 -0.1562591)
(0.1706896 0.2752939 -0.2070584)
(0.104159 0.3137533 -0.3423897)
(0.06770674 0.3509316 -0.509884)
(0.04309729 0.3814804 -0.6300985)
(0.01822013 0.4016165 -0.7181628)
(-0.004187823 0.4065124 -0.7600882)
(-0.02238699 0.3960518 -0.7601088)
(-0.04052446 0.3722464 -0.7243255)
(-0.06365687 0.3359613 -0.6654256)
(-0.1116964 0.2751266 -0.608481)
(-0.2072756 0.1391887 -0.6385305)
(-0.1664061 0.008622166 -0.1780075)
(0.2412059 0.09378944 0.09233125)
(0.1632421 0.04080478 0.2639392)
(0.1384356 0.01117053 0.3702768)
(0.146274 0.004893617 0.3627674)
(0.1301226 -0.01872797 0.4000148)
(0.06792756 0.009944225 0.2711057)
(0.131189 -0.01912251 0.4038016)
(0.2189441 -0.01986956 0.4015295)
(0.2198836 -0.020447 0.4067009)
(-0.05894873 -0.01401955 0.3821321)
(-0.0700406 0.03177858 0.2520003)
(0.04514897 -0.01991529 0.4334385)
(0.05021249 -0.02277603 0.4335608)
(-0.1185575 0.004348496 0.9997843)
(-0.1873393 0.01865798 0.5069615)
(-0.1170457 0.002662841 1.001744)
(-0.1482799 0.009789392 0.9741261)
(-0.1457046 0.007157947 0.9767221)
(-0.2001191 0.07131214 0.2880793)
(-0.08549959 0.001005744 1.042331)
(-0.08511368 0.0002588544 1.043115)
(-0.07636257 0.003900157 1.043739)
(-0.1905703 0.02139343 0.9591989)
(-0.2815257 0.04100855 0.5657723)
(-0.07665621 0.006450612 1.046825)
(-0.1063719 0.01111228 1.019675)
(-0.1056602 0.01297352 1.024534)
(-0.3097695 0.09376685 0.3200469)
(-0.04383947 -0.0003021657 1.06904)
(-0.04449684 0.002201662 1.069975)
(-0.1424034 0.04365464 0.9556771)
(-0.2628257 0.05143667 0.8487762)
(-0.3707916 0.08276371 0.5141118)
(-0.06451653 -0.006285393 1.041566)
(-0.09443088 0.003643087 1.022233)
(-0.4148106 0.1129673 0.2831848)
(-0.02838282 -0.0349299 1.056105)
(-0.03193656 -0.01139205 1.067931)
(-0.0507827 -0.1362767 0.4474878)
(-0.04351667 -0.01629926 1.004762)
(-0.1558729 -0.0652972 0.4803733)
(-0.03504753 -0.01722342 1.004069)
(-0.06872108 0.0114204 0.9653405)
(-0.05603728 0.01040968 0.9655197)
(-0.06663344 -0.4376165 0.6014464)
(-0.0331421 -0.4434103 0.6028126)
(-0.01882684 -0.1504535 0.9895381)
(-0.01544106 -0.153249 0.9889233)
(-0.2903069 -0.03479381 0.4763764)
(-0.02287849 -0.04132763 1.054861)
(-0.05186997 -0.007961066 1.043344)
(-0.078285 0.002521032 1.024984)
(-0.4292123 -0.009169885 0.3610157)
(-0.5312452 0.02552345 0.1729632)
(-0.5511687 0.05509988 0.03183981)
(0.2932776 0.1607842 0.003477614)
(0.1942805 0.1220933 0.120405)
(0.1551306 0.1037171 0.1396362)
(0.1452053 0.1085743 0.09680565)
(0.03478709 0.126881 0.003008538)
(-0.07566916 0.1436725 -0.04386529)
(-0.1572309 0.1569733 -0.02901411)
(-0.2435757 0.1683275 0.03609505)
(-0.3154173 0.1609949 0.1051654)
(-0.3912483 0.1430886 0.1191699)
(-0.4801222 0.01289618 -0.07581094)
(0.2883198 0.2168766 -0.0825613)
(0.2111136 0.2121775 -0.06689951)
(0.1625145 0.2243951 -0.1435485)
(0.1127547 0.2513192 -0.2256469)
(0.04736383 0.2793655 -0.3078304)
(-0.01249517 0.2901813 -0.3400495)
(-0.06365769 0.2872218 -0.3346428)
(-0.1086254 0.2742767 -0.2752405)
(-0.136946 0.2551595 -0.1757417)
(-0.1537994 0.2282124 -0.06565082)
(-0.1940386 0.1727804 0.0232033)
(-0.3642337 0.09066235 0.02011038)
(0.1670689 0.2717039 -0.1979942)
(0.1043613 0.3139147 -0.3304453)
(0.07034613 0.3550049 -0.4958042)
(0.04823426 0.3887077 -0.6174529)
(0.0257235 0.4128206 -0.7083607)
(0.003558207 0.4235644 -0.7575119)
(-0.01570895 0.4171786 -0.762585)
(-0.03219142 0.3969956 -0.7317756)
(-0.04904981 0.3667212 -0.6742858)
(-0.08254309 0.3273476 -0.609958)
(-0.1786333 0.2684778 -0.5914958)
(-0.3531596 0.1109167 -0.7900118)
(0.2327835 0.09879881 0.09328788)
(0.1580182 0.05164176 0.2627832)
(0.137454 0.02563682 0.3763404)
(0.1503096 0.02019606 0.3789678)
(0.1356688 -0.003210648 0.4182311)
(0.07826139 0.02327841 0.2925744)
(0.1364643 -0.003955034 0.4214367)
(0.2240736 -0.006178616 0.4226034)
(0.2246545 -0.006651765 0.4271954)
(-0.03743911 -0.01467644 0.3822638)
(-0.0467577 0.03545439 0.2666494)
(0.061135 -0.01766091 0.4358903)
(0.0674651 -0.01964387 0.4351774)
(-0.114047 0.001565046 1.003812)
(-0.171711 0.009411662 0.5073104)
(-0.1112345 0.0004269064 1.005717)
(-0.1410128 0.005469436 0.9802681)
(-0.1368469 0.004000223 0.9825859)
(-0.1831313 0.06706057 0.2897025)
(-0.08404691 -0.0002250675 1.043764)
(-0.08284123 -0.0007534849 1.044511)
(-0.07457271 0.007697168 1.049618)
(-0.1830599 0.02504863 0.9732863)
(-0.2681565 0.04489853 0.5766938)
(-0.07237228 0.007329774 1.050791)
(-0.1024049 0.01410116 1.029403)
(-0.09925904 0.01293428 1.031431)
(-0.2887198 0.1000749 0.3276639)
(-0.04335963 0.003112459 1.070656)
(-0.04207645 0.003103491 1.071014)
(-0.06527796 0.003416245 1.054329)
(-0.1322832 0.02698664 1.004474)
(-0.2510517 0.03561576 0.9058139)
(-0.3464504 0.06342073 0.5795258)
(-0.06530588 0.006909254 1.058306)
(-0.09319507 0.01221051 1.034882)
(-0.09235823 0.01436937 1.04099)
(-0.3737463 0.1104412 0.3555158)
(-0.03328522 -0.001206731 1.07218)
(-0.03360781 0.002240964 1.073405)
(-0.1034468 0.04461319 0.9555722)
(-0.1964563 0.05515077 0.8864925)
(-0.3230035 0.06409036 0.7517644)
(-0.4294434 0.08935076 0.4800028)
(-0.4635027 0.1135633 0.294281)
(-0.02494576 -0.01350992 1.068447)
(-0.009779495 -0.1357836 0.4456571)
(-0.0265346 -0.01767804 1.002813)
(-0.09607908 -0.06502859 0.4665647)
(-0.01769764 -0.01748168 1.002324)
(-0.04273747 0.01012031 0.9620716)
(-0.02957777 0.01029551 0.9611394)
(-0.05954027 -0.4408252 0.6051289)
(-0.0151435 -0.4395431 0.6050294)
(-0.01232797 -0.1528576 0.9891716)
(-0.008188646 -0.1524554 0.9892445)
(-0.01953131 -0.04206226 1.054509)
(-0.0426023 -0.00842025 1.043635)
(-0.219924 -0.0361454 0.4647438)
(-0.01576944 -0.04307364 1.054242)
(-0.03373104 -0.008458825 1.043512)
(-0.06516628 0.003015334 1.025351)
(-0.05240978 0.00333827 1.02496)
(-0.3488109 -0.01248031 0.3713086)
(-0.05214388 0.003008674 1.057572)
(-0.07724065 0.0124502 1.039344)
(-0.4770292 0.01027557 0.2389928)
(-0.5625776 0.03359049 0.09216697)
(-0.5703939 -0.01989439 -0.02982868)
(0.2853533 0.1611065 0.006434529)
(0.1922261 0.1275936 0.1231103)
(0.1589562 0.1128537 0.1497559)
(0.156589 0.1188369 0.1158338)
(0.06342051 0.1375431 0.02987045)
(-0.0536944 0.1574706 -0.02558456)
(-0.1392132 0.1702203 -0.02389334)
(-0.2287222 0.1788017 0.03337754)
(-0.2904804 0.1765039 0.1131895)
(-0.3494165 0.158355 0.1925409)
(-0.4158089 0.1176589 0.2168643)
(-0.5912409 -0.007740465 0.07456144)
(0.2806995 0.2132209 -0.07796945)
(0.2094331 0.2129868 -0.06012777)
(0.1674504 0.2293003 -0.1301131)
(0.1250079 0.2596418 -0.2078709)
(0.06490581 0.2918084 -0.2901019)
(0.005434055 0.3106795 -0.3305906)
(-0.04983229 0.3097013 -0.3297829)
(-0.09747951 0.2965031 -0.2791056)
(-0.1254621 0.2743003 -0.1818265)
(-0.1322779 0.246998 -0.06062224)
(-0.1556714 0.1994165 0.1037248)
(-0.2463117 0.1862929 -0.02852831)
(-0.3488524 0.1637875 0.1191083)
(-0.1815851 0.2085743 -0.00276289)
(-0.3190739 0.1695409 0.1763217)
(-0.4244417 0.1197577 0.08452061)
(-0.4895184 0.2076645 0.1524776)
(-0.4660509 0.1657029 0.2998776)
(-0.5260713 0.07657968 0.09036688)
(-0.5551684 0.2982745 0.06534322)
(-0.6590932 0.3120885 0.08073103)
(0.1632177 0.2635224 -0.1870981)
(0.1041521 0.3100153 -0.3164783)
(0.07182848 0.3556959 -0.4801277)
(0.05124284 0.394078 -0.6059113)
(0.03108526 0.4217289 -0.7036853)
(0.01076434 0.4362333 -0.7580087)
(-0.009274847 0.4356911 -0.7696811)
(-0.02716893 0.4175181 -0.7410019)
(-0.04215243 0.3889285 -0.6835604)
(-0.06529328 0.3548488 -0.6140708)
(-0.133024 0.3164395 -0.5682452)
(-0.2924758 0.2877838 -0.6997408)
(-0.6345268 -0.270039 -0.36043)
(-0.4025506 0.2394637 0.1254141)
(-1.011037 0.1690516 -0.03862207)
(-0.820818 0.1158086 -0.2488996)
(-1.099614 0.1453831 0.05134039)
(0.2258711 0.1002992 0.09308648)
(0.1538041 0.05847728 0.26022)
(0.1370216 0.03667032 0.3801792)
(0.154 0.03308532 0.3921975)
(0.1401378 0.01079822 0.4355675)
(0.09053637 0.03727143 0.3143067)
(0.1407895 0.009937592 0.4388402)
(0.2283672 0.007185704 0.4424893)
(0.2287912 0.006628384 0.4472856)
(-0.01244955 -0.01068376 0.3827031)
(-0.0203667 0.04410892 0.287197)
(0.07883627 -0.01190442 0.438953)
(0.08592531 -0.0130555 0.4374626)
(-0.1069764 -0.0002906816 1.007714)
(-0.1499811 0.006853992 0.5081325)
(-0.1030773 -0.001064264 1.009825)
(-0.1303818 0.00301119 0.9866523)
(-0.1248854 0.002051254 0.9892307)
(-0.1592593 0.07020283 0.2967109)
(-0.08116169 -0.001087157 1.045064)
(-0.07924536 -0.001450173 1.045861)
(-0.06831118 0.00702744 1.052073)
(-0.1723923 0.02101402 0.9802701)
(-0.2549782 0.0369263 0.5786665)
(-0.06485245 0.006639174 1.053022)
(-0.09389895 0.01230078 1.033478)
(-0.08922583 0.01178732 1.035005)
(-0.2758089 0.09899227 0.3281562)
(-0.03986839 0.002983993 1.071337)
(-0.03789728 0.002802747 1.071649)
(-0.06415812 0.008976613 1.061258)
(-0.1248941 0.03383253 1.019059)
(-0.2404261 0.04317933 0.9245277)
(-0.3319066 0.06985591 0.5947223)
(-0.06253951 0.009252247 1.062231)
(-0.09024545 0.01625783 1.046197)
(-0.08774614 0.01569434 1.048055)
(-0.3539502 0.1188655 0.3694201)
(-0.03311199 0.003753348 1.074086)
(-0.03229949 0.004129022 1.074324)
(-0.09264197 0.03216557 1.009214)
(-0.1800851 0.04156775 0.951824)
(-0.07613191 0.015747 1.046237)
(-0.302458 0.0540601 0.8349088)
(-0.3984345 0.08133363 0.5724105)
(-0.05177047 0.00760236 1.062098)
(-0.423815 0.1142617 0.3959202)
(-0.02563539 -0.001818771 1.07322)
(-0.02563219 0.002442609 1.074631)
(-0.06394658 0.04865737 0.9481258)
(-0.1479853 0.05723096 0.8884995)
(-0.2480879 0.06565459 0.7917044)
(-0.3745443 0.07207596 0.6478988)
(-0.4787214 0.08694953 0.4305573)
(-0.5150645 0.08386109 0.3367388)
(-0.0203083 -0.01400301 1.06848)
(0.05052715 -0.1306198 0.437977)
(-0.00801114 -0.01747476 1.000567)
(-0.03294597 -0.06454438 0.44868)
(0.002316348 -0.01608689 0.9995474)
(-0.0146986 0.0100855 0.9567207)
(0.0002919077 0.01189607 0.9532289)
(-0.03653673 -0.436053 0.6095045)
(0.013644 -0.4323428 0.6088697)
(-0.004129014 -0.1514108 0.9897053)
(6.808432e-05 -0.1499087 0.9899018)
(-0.01203403 -0.04293873 1.054095)
(-0.02498274 -0.007707531 1.042754)
(-0.1536087 -0.03269953 0.4489507)
(-0.007956932 -0.04279226 1.054069)
(-0.01606925 -0.006762368 1.04224)
(-0.03934634 0.005078089 1.023034)
(-0.02641522 0.006584673 1.021558)
(-0.04223504 0.003388722 1.058692)
(-0.2791056 -0.0109424 0.3649687)
(-0.01597798 -0.01423324 1.068451)
(-0.03294016 0.004003193 1.058929)
(-0.06360566 0.01362697 1.040848)
(-0.05045253 0.01480572 1.041074)
(-0.3974262 0.01041382 0.2502844)
(-0.5105202 0.01980005 0.1235511)
(-0.5921082 -0.05342617 -0.009448748)
(-0.7054713 -0.04958071 0.08094709)
(0.2785328 0.1591847 0.008296155)
(0.1909818 0.1301626 0.1237834)
(0.1629193 0.1195812 0.1566209)
(0.1678848 0.128099 0.1307709)
(0.08851314 0.148737 0.05343178)
(-0.02512622 0.1713851 -0.005178462)
(-0.1192433 0.1861533 -0.01406959)
(-0.2142197 0.1936781 0.03166705)
(-0.2796111 0.1887099 0.1101768)
(-0.3296935 0.1728069 0.2073477)
(-0.379259 0.1355108 0.314477)
(-0.452699 0.1191539 0.2112121)
(-0.5135145 0.1015322 0.2553015)
(-0.4199685 0.1222493 0.2732618)
(-0.4846046 0.1002046 0.3140805)
(-0.6241251 0.04723032 0.09149877)
(-0.5761464 0.1225303 0.363314)
(-0.6323432 0.09390015 0.392846)
(-0.6974067 0.03022363 0.08860322)
(-0.7355465 0.2831579 0.08283696)
(-0.794398 0.2603953 0.07797456)
(0.2735377 0.2054639 -0.073021)
(0.2078755 0.2102318 -0.05493315)
(0.1720669 0.2304872 -0.118931)
(0.1363657 0.2655777 -0.1932254)
(0.08249586 0.3024625 -0.2764123)
(0.02601844 0.327991 -0.3223601)
(-0.03235106 0.3320632 -0.3252298)
(-0.08554649 0.3197141 -0.282746)
(-0.118768 0.2957796 -0.1896683)
(-0.1266909 0.2648616 -0.06768467)
(-0.1388661 0.2152653 0.1194656)
(-0.1627022 0.2182266 0.05661916)
(-0.2767681 0.1751677 0.2452554)
(-0.1474208 0.2129336 0.08858461)
(-0.2589852 0.1720738 0.2681695)
(-0.4663203 0.1845535 0.3221446)
(-1.398514 0.4050984 0.07132073)
(-1.526524 0.3755097 0.1667692)
(0.1593436 0.2483085 -0.1740018)
(0.1042397 0.3002296 -0.2995931)
(0.07296037 0.3510762 -0.4605215)
(0.05283489 0.3953144 -0.5896321)
(0.03343548 0.4290957 -0.6974836)
(0.01500008 0.4472837 -0.7642679)
(-0.00380563 0.4504354 -0.783945)
(-0.02260318 0.4373537 -0.757794)
(-0.03978568 0.4083083 -0.6978866)
(-0.06026206 0.374705 -0.6222647)
(-0.112587 0.3397159 -0.5622722)
(-0.2164041 0.3224643 -0.644821)
(-0.5811779 0.3618167 -0.2465184)
(-0.3220773 0.2412615 0.1491879)
(-0.2757547 0.2120456 0.1539214)
(-0.7696956 0.2405214 0.09895935)
(-0.4361609 0.410236 -0.2749251)
(-0.598442 0.2506999 0.1000886)
(-1.498305 0.1998461 0.2197212)
(0.220867 0.100931 0.09173668)
(0.1512199 0.06245044 0.2564044)
(0.1378736 0.04485106 0.3822619)
(0.1583422 0.04465536 0.402543)
(0.1438936 0.02258267 0.4503905)
(0.1044866 0.0519008 0.3326071)
(0.1446261 0.02176963 0.4537288)
(0.2326001 0.01857217 0.4597629)
(0.2337792 0.01842602 0.4645861)
(0.01551914 -0.002724525 0.3825801)
(0.009991239 0.05615942 0.3092344)
(0.09756899 -0.003932357 0.4415471)
(0.1055302 -0.004523935 0.4394555)
(-0.09758982 -0.001276421 1.011731)
(-0.1229906 0.008628314 0.5081126)
(-0.09268271 -0.001534628 1.014033)
(-0.1166026 0.001804545 0.9934282)
(-0.1098234 0.001641545 0.9962321)
(-0.1291989 0.07784934 0.307431)
(-0.07700265 -0.00152897 1.046336)
(-0.07444728 -0.001663014 1.047179)
(-0.0595552 0.006360087 1.054338)
(-0.1580719 0.01983812 0.9886457)
(-0.2363036 0.03624981 0.5813505)
(-0.05511317 0.00618654 1.055385)
(-0.08222692 0.01142434 1.037442)
(-0.0762597 0.01125047 1.039149)
(-0.2584031 0.1050474 0.3305436)
(-0.03513414 0.002651524 1.071964)
(-0.03263571 0.002564681 1.072307)
(-0.06016519 0.009443245 1.063053)
(-0.1156541 0.03275571 1.022931)
(-0.2292816 0.03847856 0.9325196)
(-0.3217808 0.06462062 0.5973214)
(-0.05759007 0.009506707 1.063532)
(-0.084368 0.01565812 1.049553)
(-0.08067865 0.01569081 1.050456)
(-0.3457428 0.1220456 0.3688409)
(-0.03108384 0.004282493 1.074482)
(-0.02975355 0.004331864 1.074598)
(-0.0505605 0.01045271 1.065251)
(-0.08532101 0.04132835 1.024485)
(-0.1692693 0.05234129 0.9701397)
(-0.07405297 0.01855496 1.051641)
(-0.07156112 0.01869653 1.0536)
(-0.289412 0.0627453 0.8573228)
(-0.3840105 0.08898389 0.5915075)
(-0.048928 0.01130042 1.066262)
(-0.4083664 0.1242515 0.4151871)
(-0.02510547 0.004440199 1.075382)
(-0.02431827 0.005131965 1.075629)
(-0.0518472 0.04019688 1.006441)
(-0.1297978 0.04876766 0.9588758)
(-0.06216894 0.01740241 1.048139)
(-0.04865928 0.0191322 1.048666)
(-0.223211 0.05994961 0.8823223)
(-0.3456744 0.07055294 0.7566646)
(-0.4473974 0.08666911 0.5521009)
(-0.0415168 0.008518425 1.063497)
(-0.4780219 0.0969629 0.4583679)
(-0.0204143 -0.001785179 1.073481)
(-0.02015709 0.002825897 1.074972)
(-0.0213791 0.05377592 0.9323301)
(-0.09986505 0.06472591 0.8772425)
(-0.192222 0.06960443 0.7971401)
(-0.2929772 0.07328744 0.687021)
(-0.417176 0.06837621 0.5339693)
(-0.5378844 0.04407807 0.4024687)
(-0.5852988 0.07209752 0.3061648)
(-0.6377859 0.04720096 0.3222502)
(-0.5595179 0.06997631 0.3605828)
(-0.6172221 0.04759677 0.3669697)
(0.1203894 -0.1140796 0.4262748)
(0.01659546 -0.01303429 0.9956543)
(0.05320029 -0.05780115 0.4135186)
(0.03337836 -0.008442508 0.993371)
(0.02161942 0.01480345 0.9441607)
(0.04386394 0.02041572 0.9346303)
(-0.008241107 -0.4313913 0.6092423)
(0.03827335 -0.4254998 0.6055872)
(0.004904359 -0.1485626 0.9899394)
(0.01067873 -0.144263 0.9908654)
(-0.003493953 -0.04237614 1.053851)
(-0.006097787 -0.005281656 1.04047)
(-0.08513046 -0.02736011 0.4172168)
(0.001406205 -0.04142954 1.053774)
(0.004763412 -0.003184253 1.039259)
(-0.01172561 0.009046551 1.017319)
(0.003331091 0.01209102 1.014005)
(-0.01178791 -0.013893 1.068326)
(-0.02381565 0.005132059 1.058566)
(-0.2140913 -0.002512937 0.3453569)
(-0.007448412 -0.01341821 1.068246)
(-0.01459131 0.006425174 1.05813)
(-0.03694363 0.01690512 1.040297)
(-0.0237267 0.01894236 1.039179)
(-0.3290047 0.0183105 0.2468783)
(-0.01577579 -0.001573278 1.073552)
(-0.03191747 0.009586523 1.06389)
(-0.4292697 0.02167233 0.1298161)
(-0.5424421 -0.06744501 -0.0280053)
(-0.752346 -0.08369087 0.07999643)
(-0.7391856 0.008940131 0.08262357)
(-0.677193 0.05857469 0.4264507)
(-0.7167888 0.0209175 0.4439147)
(-0.7671272 0.000462175 0.07754595)
(-0.8414405 0.2420408 0.07152712)
(-0.8857808 0.2288034 0.0614772)
(0.2740812 0.1552533 0.009840654)
(0.1912163 0.1309399 0.1220816)
(0.1680873 0.12347 0.1603162)
(0.1802757 0.1362631 0.1415079)
(0.1131684 0.1606472 0.07058836)
(0.009987597 0.1843545 0.0168607)
(-0.09474514 0.2041384 -0.004236704)
(-0.1965658 0.2113313 0.03062967)
(-0.2711376 0.2056739 0.1048073)
(-0.3246282 0.1874989 0.203942)
(-0.3665001 0.1535603 0.3322436)
(-0.378333 0.1316211 0.360729)
(-0.4342393 0.1122905 0.4089647)
(-0.3662574 0.1308788 0.3828349)
(-0.4239632 0.1109595 0.4283487)
(-0.5471633 0.1331997 0.391601)
(-0.6011089 0.09559801 0.4249426)
(-1.560741 0.3081205 0.2040555)
(-1.561585 0.2539495 0.2177353)
(0.2679343 0.1920864 -0.06711721)
(0.207396 0.2034972 -0.05143396)
(0.1767482 0.2273462 -0.1103234)
(0.1475395 0.2668917 -0.1804268)
(0.09915688 0.3103563 -0.2656975)
(0.04788004 0.341972 -0.3178512)
(-0.01041804 0.353281 -0.3247066)
(-0.06886849 0.3439003 -0.2891682)
(-0.1109393 0.3185341 -0.1998378)
(-0.1258804 0.2854832 -0.07963018)
(-0.1405392 0.2365777 0.1171975)
(-0.1349857 0.217317 0.1004976)
(-0.2439915 0.1804985 0.2781327)
(-0.1299128 0.2262774 0.1058567)
(-0.2412984 0.1892526 0.2802918)
(-0.4059548 0.1765108 0.3685867)
(-0.3769164 0.1546402 0.3747138)
(-1.541884 0.1174791 0.3298356)
(0.1573321 0.2219142 -0.1572878)
(0.1045838 0.284102 -0.281299)
(0.0747702 0.3391373 -0.4373397)
(0.05441087 0.3896909 -0.5669969)
(0.03431355 0.4313684 -0.6824498)
(0.01517498 0.4570639 -0.764605)
(-0.002375003 0.4643146 -0.8039804)
(-0.01995099 0.4534263 -0.7831601)
(-0.03790244 0.4289335 -0.7234246)
(-0.06102954 0.3937581 -0.6390205)
(-0.1112481 0.3598691 -0.5663689)
(-0.1964341 0.3354447 -0.6319671)
(-0.3593769 0.4091886 -0.2675174)
(-0.2543174 0.2090596 0.1571221)
(-0.2501144 0.2198503 0.1575945)
(-0.5289192 0.2652746 0.1001828)
(-0.334538 0.3595523 -0.2652377)
(-0.5262243 0.2906715 0.09991609)
(-1.137396 0.2013891 0.3238683)
(-0.9701435 0.1924245 0.3369316)
(0.2196273 0.1020213 0.09014236)
(0.1507893 0.06680572 0.2501849)
(0.1410953 0.05022182 0.3832502)
(0.1660362 0.0556559 0.4099734)
(0.1477934 0.03307193 0.4628547)
(0.1210824 0.0682885 0.3456654)
(0.1489133 0.03197678 0.4675741)
(0.2386036 0.03019316 0.4745539)
(0.2412022 0.03199835 0.4808559)
(0.04842871 0.008896079 0.3779186)
(0.0419605 0.07578659 0.3177333)
(0.1186355 0.005612499 0.4405879)
(0.1286057 0.006797735 0.4355056)
(-0.08597244 -0.001220334 1.015918)
(-0.09032539 0.01615315 0.5059844)
(-0.07995903 -0.001193467 1.018532)
(-0.09974567 0.002249245 1.000661)
(-0.09149753 0.002651183 1.00376)
(-0.09137178 0.09075543 0.3185381)
(-0.07161828 -0.001525807 1.047593)
(-0.0684265 -0.001639046 1.048548)
(-0.04871937 0.006298573 1.056775)
(-0.1399097 0.0203767 0.9979064)
(-0.2123217 0.03921625 0.5834715)
(-0.04331427 0.006652437 1.05795)
(-0.06770039 0.0114907 1.041764)