/*--------------------------------*- C++ -*----------------------------------*\
  =========                 |
  \\      /  F ield         | OpenFOAM: The Open Source CFD Toolbox
   \\    /   O peration     | Website:  https://openfoam.org
    \\  /    A nd           | Version:  8
     \\/     M anipulation  |
\*---------------------------------------------------------------------------*/
FoamFile
{
    version     2.0;
    format      ascii;
    class       volScalarField;
    location    "1000";
    object      V;
}
// * * * * * * * * * * * * * * * * * * * * * * * * * * * * * * * * * * * * * //

dimensions      [0 3 0 0 0 0 0];

internalField   nonuniform List<scalar> 
60977
(
0.002046612
0.002380628
0.002532645
0.002345457
0.002423257
0.002773123
0.002595467
0.002488679
0.002673927
0.002347738
0.002179397
0.002849549
0.00270148
0.002776853
0.002908296
0.002595216
0.002457449
0.002672981
0.002663206
0.002354475
0.002836075
0.002639313
0.00285103
0.003157136
0.002688653
0.002765499
0.002984022
0.002882653
0.00257764
0.002431868
0.002657779
0.002661721
0.002654178
0.002358522
0.002716738
0.003381392
0.002560219
0.002837238
0.003228672
0.00307692
0.002637608
0.002749175
0.002988385
0.002973221
0.002829967
0.002555402
0.002416338
0.002639928
0.002652254
0.002644717
0.002643558
0.002361893
0.002683076
0.003203369
0.002938766
0.002948416
0.002820509
0.003222371
0.003153643
0.002951438
0.002552552
0.002736671
0.002975936
0.002989432
0.002900058
0.002762532
0.002548446
0.002409113
0.002627136
0.002638328
0.002634471
0.002625241
0.002638878
0.00236454
0.002658909
0.003164639
0.002778982
0.00322845
0.0001680143
0.002441225
0.0002053682
0.0002807036
0.0003060759
0.002808221
0.003207507
0.003155169
0.003035074
0.002737388
0.002538502
0.002729732
0.002964187
0.002982914
0.002913492
0.002799718
0.002736569
0.002548346
0.002406519
0.002620358
0.002627437
0.002621211
0.002612091
0.002614828
0.002638262
0.002368051
0.002644365
0.003143807
0.002748537
0.003146797
0.0002013428
0.002564047
0.0001955537
0.0003194969
0.000320477
0.002427027
0.002520924
0.0002779656
0.0003349676
0.00280153
0.003195754
0.003146815
0.003046786
0.002786499
0.002694909
0.002538919
0.002726688
0.002957045
0.002974011
0.002908475
0.002802122
0.002756391
0.002729876
0.002551322
0.002405823
0.002617534
0.002621336
0.002610919
0.002598181
0.002599033
0.002610933
0.002640625
0.002375985
0.002637508
0.003132021
0.002737056
0.003121009
0.000194864
0.002556835
0.000193463
0.0003224249
0.0003211335
0.002453006
0.002633182
0.000349587
0.0003505369
0.00246734
0.00251277
0.002531662
0.000263069
0.0003061484
0.002798629
0.003188911
0.003139201
0.003043828
0.002801507
0.002723903
0.002690786
0.00254264
0.002725581
0.002953643
0.002968024
0.002901014
0.00279516
0.002750568
0.002741873
0.002731349
0.002557889
0.002405746
0.002616594
0.002618673
0.002605134
0.002587847
0.002584072
0.002593064
0.002610836
0.002647204
0.002393839
0.002634944
0.003126205
0.002731695
0.003110903
0.0001935817
0.00255687
0.0001931301
0.0003217053
0.0003207712
0.002476505
0.002624875
0.0003501823
0.0003496314
0.0003246728
0.002600048
0.000325492
0.0003189925
0.0003221333
0.00266081
0.0003174095
0.0003192316
0.002483907
0.002512022
0.0003241482
0.0003195495
0.0002605844
0.0003005488
0.002529549
0.002539165
0.002797598
0.003185653
0.003134416
0.003039079
0.002801657
0.002730899
0.002713147
0.002695287
0.002548298
0.002725216
0.002952292
0.002965008
0.002895875
0.002787699
0.002740695
0.002730611
0.002739738
0.00273919
0.002571851
0.002405777
0.002616366
0.002617759
0.00260263
0.002582136
0.002573378
0.002577001
0.00259099
0.002613962
0.002662681
0.002434976
0.0026342
0.003123771
0.002729099
0.00310663
0.0001933072
0.002556734
0.0001931467
0.0003211681
0.0003207096
0.002487676
0.002623575
0.0003496658
0.000349648
0.0003269208
0.002579731
0.0003276113
0.000325363
0.0003253683
0.002663793
0.0003194887
0.0003194901
0.002573461
0.00264671
0.0003252434
0.0003234159
0.002675788
0.0003111184
0.0003132276
0.002490696
0.0003243806
0.002518238
0.0003247953
0.0003205041
0.0003205697
0.0002591268
0.000258086
0.0003000708
0.0003001827
0.002531795
0.002540573
0.002546641
0.002797261
0.003184285
0.003131982
0.003035808
0.002798718
0.002728707
0.002713489
0.00271682
0.002704225
0.002557197
0.002724984
0.002951738
0.002963798
0.002893356
0.0027829
0.002732355
0.002717876
0.002725047
0.002744496
0.002759494
0.002613687
0.002405626
0.002616303
0.002617566
0.002601815
0.002579739
0.002567609
0.002565847
0.002573796
0.00259132
0.00262189
0.002715694
0.002264051
0.002634102
0.003122861
0.002727933
0.003104849
0.0001932269
0.002556609
0.0001931673
0.0003209718
0.0003207666
0.002493214
0.002623909
0.0003498224
0.0003498623
0.0003283058
0.002585098
0.0003286227
0.0003268094
0.000326595
0.002661165
0.0003196014
0.0003197122
0.0003267647
0.002567227
0.002634679
0.0003276141
0.0003262261
0.0003266104
0.002687053
0.0003138313
0.0003140938
0.002578424
0.002644498
0.002668727
0.0003254992
0.0003241814
0.002689248
0.0003109704
0.0003133375
0.002491773
0.0003252519
0.002522876
0.0003255155
0.0003210907
0.0003212055
0.0002575543
0.0002573731
0.000300363
0.0003005031
0.002535166
0.0003115283
0.000326003
0.0003245223
0.002543881
0.002551734
0.002556613
0.002797016
0.003183556
0.00313086
0.003034242
0.002796599
0.002725173
0.002706486
0.002714612
0.002725159
0.002719976
0.002574885
0.002724414
0.002951193
0.002963364
0.002892542
0.00278086
0.002727527
0.002708349
0.002710117
0.002726368
0.002757018
0.002855877
0.002939722
0.002404761
0.002616075
0.002617656
0.00260181
0.002579121
0.002565346
0.002560026
0.002562214
0.002572809
0.002594247
0.002644116
0.003124496
0.002634253
0.003122436
0.002727386
0.003104223
0.0001931963
0.002557078
0.0001931771
0.0003209196
0.0003208427
0.002496529
0.002624237
0.0003499674
0.0003499946
0.0003290029
0.002590613
0.0003291716
0.0003274401
0.0003272977
0.002658147
0.0003198466
0.0003199349
0.0003283015
0.002583669
0.0026264
0.0003286705
0.0003277292
0.0003277774
0.002686416
0.0003143074
0.0003144713
0.0003271067
0.002575474
0.00262728
0.002668487
0.0003280502
0.0003268968
0.0003273597
0.002703334
0.0003141412
0.0003145249
0.00258408
0.002646449
0.002668218
0.002688195
0.002707494
0.0003141012
0.002491134
0.0003256708
0.002524571
0.0003257284
0.0003214042
0.0003214549
0.0002573618
0.0002573911
0.0003005913
0.00030063
0.0003120096
0.0003264886
0.002537459
0.0003122922
0.0003268066
0.0003249781
0.0003252615
0.002546104
0.0003277
0.0003273356
0.002557787
0.002569178
0.002574332
0.002796249
0.003182499
0.003130106
0.003033691
0.002796129
0.002723368
0.002701027
0.002704591
0.002720069
0.002737193
0.002755109
0.002546795
0.002722715
0.002949851
0.002963041
0.002892635
0.002780804
0.002726037
0.002703361
0.002699547
0.002709564
0.002732881
0.00278801
0.0004088845
0.0003657718
0.0003672154
0.000350697
0.0001968613
0.0004796886
0.0003497755
0.0002774597
0.0001866321
0.0002934433
0.002402209
0.00261512
0.002617771
0.00260223
0.002579431
0.002565061
0.002558064
0.002556485
0.002560917
0.002574367
0.002605965
0.00263354
0.00021301
0.0003521105
0.0001901164
0.0002976257
0.0002950205
0.002634401
0.003121787
0.002726955
0.00310389
0.0001931871
0.002558286
0.000193182
0.0003209254
0.0003209093
0.002499161
0.002625725
0.0003500547
0.0003500804
0.0003293886
0.002595019
0.0003294972
0.0003278047
0.0003277662
0.002656553
0.0003200153
0.0003200668
0.0003290174
0.002595669
0.002625847
0.0003292051
0.0003284154
0.0003284373
0.002678618
0.0003146073
0.0003147005
0.0003287668
0.002595451
0.002618299
0.002660795
0.0003291604
0.0003284486
0.0003285468
0.00270178
0.000314785
0.000314963
0.002583373
0.002628212
0.0003278936
0.002661908
0.002692
0.0003287084
0.00271821
0.0003150202
0.0003154592
0.002587348
0.002649348
0.002669158
0.002691726
0.002719089
0.002741592
0.000314699
0.002488677
0.0003257264
0.002525038
0.0003256764
0.0003215012
0.0003215088
0.0002574176
0.0002574069
0.0003006326
0.0003005931
0.0003124291
0.0003269836
0.002538509
0.0003124769
0.0003270719
0.0003254522
0.0003255962
0.0003282358
0.002546383
0.0003150403
0.0003285928
0.0003278154
0.0003281639
0.002559458
0.002582414
0.002612087
0.002545847
0.002793763
0.003179778
0.003128709
0.003033134
0.002797046
0.002724192
0.00269899
0.002697267
0.002707753
0.00272608
0.002742768
0.0003461425
0.0003418561
0.0003423709
0.0003391205
0.0002922797
0.0003367286
0.000335608
0.0002963986
0.0003192147
0.0003252847
0.002718466
0.002946358
0.002962093
0.002893172
0.002782171
0.002727162
0.0027026
0.002694476
0.002698248
0.002714596
0.002748054
0.0003512039
0.0003442456
0.0003442605
0.0003405496
0.0003396743
0.0002820571
0.0003031427
0.002396847
0.002612285
0.002617547
0.002603095
0.002580414
0.002565875
0.002558442
0.002555193
0.002555536
0.002562644
0.002586274
0.00259739
0.0003143646
0.0003395873
0.0003382895
0.0003186653
0.0003147236
0.0003244979
0.0003034171
0.002633932
0.003119547
0.002726222
0.003102767
0.0001931847
0.00255979
0.0001931792
0.0003209417
0.0003209325
0.002501766
0.002629155
0.0003501199
0.0003501465
0.0003296397
0.002599642
0.0003297375
0.0003280841
0.0003281515
0.002658033
0.0003201155
0.0003201529
0.0003293981
0.002604284
0.002627316
0.0003295157
0.0003288214
0.0003288774
0.002673588
0.0003147734
0.0003148249
0.0003295023
0.002609889
0.002620021
0.002651505
0.0003296952
0.0003291573
0.0003292083
0.002691554
0.0003150956
0.0003151853
0.0003294529
0.002605668
0.00262007
0.0003290076
0.0003291646
0.002649774
0.002683899
0.0003298648
0.002706941
0.0003157362
0.000315916
0.002588967
0.002632193
0.0003283974
0.0003288111
0.002660806
0.002688519
0.002714828
0.0003292793
0.002720166
0.0003156744
0.0003161363
0.002589545
0.002651905
0.002669721
0.002692076
0.002735911
0.002814912
0.0003405873
0.0003441746
0.0003382047
0.0003391841
0.002481215
0.000325567
0.002525435
0.0003254076
0.0003215167
0.0003215094
0.000257319
0.0002570029
0.0003004931
0.0003002394
0.0003124701
0.0003270914
0.00253931
0.0003124167
0.0003270832
0.0003256454
0.0003257553
0.000315197
0.0003287921
0.002546104
0.0003152532
0.0003289038
0.0003283774
0.0003285672
0.002556509
0.0003160397
0.0003296633
0.002583663
0.00264118
0.002895709
0.0002970337
0.0003348444
0.0003342135
0.0002948479
0.0003252563
0.0003189529
0.002787985
0.003173469
0.003124776
0.00303104
0.002798715
0.002727751
0.002701245
0.002694793
0.002698943
0.002712308
0.002721579
0.0003404314
0.0003381279
0.0003384636
0.0003363982
0.0003364694
0.0003358237
0.000318281
0.0003220465
0.0027092
0.002938134
0.002959248
0.002894086
0.002785157
0.002730472
0.00270549
0.00269476
0.002693175
0.002703182
0.002731714
0.0003436646
0.0003402651
0.0003422552
0.0003393169
0.0003373525
0.0003372666
0.0003147707
0.002388689
0.00260509
0.002615747
0.00260441
0.00258242
0.002567507
0.002560291
0.002557047
0.002555447
0.002557815
0.002576298
0.002586711
0.0003116603
0.0003389627
0.0003392294
0.0003272787
0.0003088462
0.0003285117
0.0003180153
0.0003220849
0.002633899
0.003113819
0.002723267
0.003098591
0.0001931656
0.002560219
0.0001931365
0.0003208928
0.0003208165
0.002504091
0.002634721
0.0003501744
0.0003501899
0.0003298508
0.002605542
0.0003299552
0.0003283673
0.0003285256
0.002663884
0.0003201884
0.000320224
0.0003296434
0.002612006
0.002631834
0.000329744
0.0003291264
0.0003292431
0.002674104
0.0003148694
0.0003149065
0.0003298825
0.002620219
0.00262381
0.002647972
0.0003300023
0.0003295748
0.0003296486
0.002683875
0.0003152536
0.0003153031
0.0003302104
0.002621823
0.002623491
0.000329777
0.0003298644
0.002639313
0.002670836
0.00033041
0.002693108
0.0003160458
0.0003161332
0.0003300412
0.002613496
0.002625887
0.0003295295
0.0003299686
0.0003296967
0.0003301862
0.002647518
0.00267405
0.002692637
0.0003304632
0.002694825
0.0003164189
0.0003165996
0.00259384
0.002637124
0.0003290405
0.0003292927
0.002662187
0.002686516
0.002717009
0.002728458
0.0003372518
0.0003369622
0.0003356072
0.0003347455
0.0003165121
0.002593121
0.002654866
0.002670979
0.002688392
0.002735647
0.002870384
0.0003577643
0.0003936034
0.0003438486
0.0003545619
0.000335039
0.0003337825
0.002544064
0.0003253671
0.002529724
0.0003270571
0.0003213667
0.0003203145
0.0002561417
0.00025355
0.0002994065
0.0002954477
0.0003123149
0.0003270589
0.002540536
0.0003121546
0.0003271314
0.0003258097
0.0003260718
0.0003152471
0.0003289482
0.002546816
0.0003151904
0.0003289812
0.0003286465
0.0003288281
0.0003162063
0.0003298829
0.002553389
0.0003162678
0.0003300161
0.002572991
0.0003304417
0.002641784
0.002518704
0.0002813079
0.0003427273
0.0004622641
0.0001974339
0.0002910244
0.00017737
0.0003217665
0.0003171158
0.002773246
0.003162061
0.003114681
0.003024616
0.002800986
0.002734039
0.002708354
0.002698498
0.002695652
0.002702618
0.002709969
0.0003384636
0.0003363985
0.0003377013
0.0003355773
0.0003361568
0.0003353932
0.0003360635
0.0003349728
0.0003193373
0.0003206629
0.002692949
0.002916929
0.002952063
0.002895355
0.002791675
0.002736231
0.002711653
0.00270039
0.002694636
0.002697826
0.002722639
0.0003425864
0.000339579
0.0003420248
0.0003391092
0.0003378507
0.0003381629
0.0003192321
0.0003209393
0.002381027
0.002590976
0.002608802
0.002605032
0.002586046
0.002570129
0.002563027
0.002561244
0.002560118
0.002559055
0.002571828
0.002582488
0.0003080247
0.00033958
0.0003395928
0.000329327
0.0003073959
0.0003295789
0.0003238343
0.0003247235
0.002618443
0.003108133
0.002709295
0.003084472
0.0001930696
0.002556604
0.0001929652
0.0003206327
0.0003203218
0.002504492
0.002642055
0.0003501826
0.0003501375
0.0003300471
0.002612869
0.0003301298
0.0003286692
0.0003288633
0.00267522
0.0003202517
0.0003202728
0.0003298486
0.002620522
0.002640806
0.0003299509
0.0003294211
0.0003296065
0.002682048
0.0003149411
0.0003149752
0.0003301269
0.002629221
0.002630524
0.00265104
0.0003302289
0.0003298879
0.0003300145
0.002682371
0.0003153457
0.0003153825
0.000330598
0.002633348
0.002628858
0.0003302295
0.0003303261
0.002636683
0.002662113
0.000330722
0.002683193
0.0003161996
0.0003162488
0.0003308141
0.002631352
0.002631106
0.0003303169
0.0003308162
0.0003304115
0.0003309427
0.002637101
0.002656999
0.002673899
0.0003310185
0.002681701
0.0003167281
0.0003168157
0.00262096
0.002633472
0.000330214
0.000330493
0.0003304374
0.0003307655
0.002650361
0.0003308793
0.002669934
0.002684993
0.002681078
0.0003355829
0.0003345592
0.0003347946
0.0003336622
0.0003167985
0.0003169801
0.002601212
0.002643466
0.0003293833
0.0003296642
0.00266637
0.002684688
0.002714051
0.002736794
0.0003378701
0.0003398754
0.0003345453
0.0003342789
0.0003345602
0.0003333545
0.0003340833
0.0003330858
0.0003166819
0.00260811
0.002659205
0.002674588
0.002686408
0.002717901
0.002869106
0.003274157
0.000334004
0.0003428373
0.0003202589
0.0003178561
0.002697397
0.002839275
0.002555621
0.0002434381
0.0001391405
0.0002735332
0.0001126596
0.0003117602
0.000327495
0.002542937
0.0003096566
0.0003287858
0.0003263437
0.0003264984
0.0003151132
0.0003290448
0.002548647
0.0003151085
0.0003293195
0.0003289813
0.0003294891
0.0003162634
0.0003300791
0.002554072
0.0003162144
0.0003301593
0.0003306758
0.002562546
0.0003167492
0.0003308235
0.002614258
0.002517621
0.000299511
0.0002716532
0.002677973
0.003129165
0.003100665
0.003007512
0.002806904
0.002744021
0.002720705
0.002710078
0.002699998
0.002697325
0.002701447
0.0003379378
0.0003357508
0.0003375078
0.0003352723
0.0003363323
0.0003349578
0.0003364613
0.0003349089
0.0003197725
0.000319737
0.0003200026
0.0003192558
0.002625356
0.002868688
0.002927544
0.002894537
0.002807202
0.002746035
0.0027208
0.002711514
0.002704351
0.002699315
0.002715708
0.0003420819
0.0003391754
0.0003417185
0.0003387864
0.0003384603
0.0003385012
0.0003218856
0.0003224548
0.002376731
0.002572669
0.002593013
0.002600268
0.002590765
0.002574056
0.002566296
0.002566665
0.002569343
0.002567854
0.00257244
0.002578262
0.0003073834
0.0003396094
0.0003394442
0.0003296922
0.0003072799
0.0003296236
0.000325225
0.0003254198
0.002737066
0.003089743
0.002795911
0.003031876
0.0001928096
0.002544558
0.0001926596
0.0003196639
0.0003180575
0.002498168
0.00265103
0.0003500072
0.0003497466
0.0003301543
0.002620473
0.0003301244
0.0003288906
0.0003289822
0.002692638
0.0003202746
0.0003202454
0.0003300381
0.002630193
0.002655456
0.0003301245
0.0003297347
0.0003299527
0.002700291
0.0003150033
0.0003150268
0.0003303318
0.002638782
0.002641679
0.002662948
0.0003304349
0.0003301887
0.0003303765
0.002690095
0.0003154165
0.0003154509
0.000330848
0.002643133
0.002636898
0.0003305635
0.0003307047
0.002641383
0.002661492
0.0003309525
0.002677164
0.0003162915
0.0003163284
0.0003312094
0.002644019
0.00263781
0.0003307794
0.0003313171
0.0003308831
0.0003314397
0.002635176
0.002646284
0.002661916
0.0003313368
0.002671624
0.0003168827
0.000316932
0.000331239
0.002640753
0.002640884
0.000331076
0.0003314229
0.0003312071
0.0003315884
0.002641479
0.0003314538
0.00265142
0.002661624
0.00266328
0.0003349523
0.000333784
0.0003344868
0.0003332656
0.0003171113
0.0003172016
0.002631726
0.002643141
0.0003306052
0.0003309423
0.0003308841
0.0003312907
0.002657998
0.0003311234
0.0003312866
0.002670116
0.00267924
0.002676189
0.0003341324
0.0003335294
0.0003332315
0.000332477
0.0003340041
0.0003331586
0.0003339067
0.0003331281
0.0003169712
0.0003171571
0.002619982
0.002651924
0.0003298704
0.0003306105
0.002674768
0.002687399
0.002705306
0.00273272
0.002660532
0.0003321187
0.0003318835
0.0003320626
0.0003311389
0.0003192199
0.0003179931
0.0003186263
0.0003178973
0.002690626
0.002666793
0.002680222
0.002691808
0.002704051
0.00281008
0.003272295
0.0001725366
0.0001887467
0.0002815822
0.0002795273
0.000311343
0.0002964553
0.002050495
0.002559636
0.002872069
0.002575184
0.002737864
0.0002981283
0.0002689188
0.0003216514
0.0003483445
0.002547587
0.000315423
0.0003300345
0.00255025
0.0003165144
0.0003313822
0.0003301963
0.0003312877
0.0003161613
0.0003302911
0.002558333
0.0003162762
0.0003307223
0.0003167473
0.0003309071
0.002563378
0.000316711
0.0003310208
0.002577574
0.0003170425
0.002895959
0.002715967
0.003019803
0.003056779
0.002965413
0.002835557
0.002762463
0.002738561
0.002731103
0.002716447
0.002698771
0.00269183
0.0003375737
0.0003353139
0.000337199
0.0003348944
0.000336639
0.0003349816
0.0003366339
0.0003349214
0.0003202877
0.0003191445
0.0003205309
0.0003191701
0.002684254
0.002801644
0.002871776
0.002871555
0.002837636
0.002763246
0.00273272
0.002726929
0.002725119
0.002713619
0.002711017
0.0003415103
0.0003385965
0.0003410234
0.0003380362
0.0003385039
0.0003383476
0.0003227812
0.0003229111
0.00237407
0.002557835
0.002570344
0.0025873
0.00259011
0.002578457
0.002569865
0.002571891
0.002581185
0.002586803
0.002584831
0.002571865
0.0003073159
0.0003391857
0.0003386605
0.000329453
0.0003073513
0.0003289907
0.0003254749
0.0003254239
0.0003441232
0.003007942
0.0003909345
0.0003699235
0.0004755095
0.002771292
0.00295555
0.0001923086
0.002544464
0.0001904259
0.0003135287
0.0002998288
0.00247257
0.002666448
0.000349247
0.0003482609
0.0003299192
0.002625635
0.0003294879
0.0003287202
0.0003283655
0.002716208
0.0003201524
0.0003199375
0.0003301518
0.002639423
0.002675865
0.0003301369
0.0003299871
0.0003301334
0.00273125
0.0003150323
0.0003150119
0.0003305214
0.002649427
0.002658546
0.002687354
0.0003306116
0.0003305028
0.0003307245
0.002713408
0.0003154782
0.0003155042
0.0003310575
0.002653168
0.002649177
0.0003308804
0.0003310757
0.002655759
0.002672047
0.0003311612
0.002677591
0.0003163627
0.0003163978
0.0003314661
0.002654431
0.00264667
0.0003311232
0.0003316809
0.0003312686
0.000331836
0.002640646
0.002645627
0.002654718
0.0003315732
0.002658987
0.0003169756
0.0003170137
0.0003316496
0.002654655
0.002649034
0.0003315847
0.0003319782
0.0003317091
0.0003321248
0.002640651
0.0003317827
0.002639849
0.002647497
0.002650981
0.0003345198
0.0003332709
0.0003340976
0.0003327955
0.0003172693
0.0003173207
0.0003314893
0.002653884
0.002653073
0.0003315539
0.0003319951
0.0003317229
0.0003322068
0.002652032
0.0003316663
0.0003317094
0.0003318998
0.002652544
0.002653707
0.002655021
0.0003333697
0.0003326549
0.0003328649
0.0003320716
0.00033394
0.0003331851
0.0003338594
0.0003331029
0.0003172909
0.0003173824
0.002654241
0.00265503
0.0003312092
0.0003320964
0.0003315754
0.000332594
0.002671378
0.000331388
0.0003315301
0.002677758
0.0003172297
0.002674623
0.002669321
0.002650909
0.0003324458
0.0003317868
0.0003325908
0.0003321075
0.0003184156
0.0003178824
0.0003183727
0.0003179093
0.002661094
0.002662661
0.0003315672
0.0003333867
0.002686066
0.002701067
0.002701949
0.002712757
0.002658551
0.0003088833
0.0003085586
0.0003151397
0.0003148966
0.000315621
0.0003118528
0.0003169201
0.0003157741
0.002706894
0.002678228
0.002684668
0.002703958
0.002712648
0.002728741
0.0003934638
0.0003577302
0.0003543185
0.0003433226
0.0001886727
0.000462182
0.0003426773
0.0001723804
0.0002795716
0.0002817197
0.002056082
0.002633107
0.0004057391
0.0003414085
0.0002826971
0.0003019198
0.002454913
0.002672704
0.002547829
0.002555921
0.0003398664
0.0003127101
0.002550316
0.002785584
0.0003332281
0.0003304147
0.0003719737
0.0003330384
0.0003762515
0.002550714
0.0003170426
0.0003316856
0.002560731
0.0003197004
0.0003166752
0.0003312063
0.00257669
0.000316863
0.0003317457
0.0003170483
0.002576974
0.0003170178
0.002548226
0.0001966045
0.0003426466
0.000280328
0.0001783725
0.0002913939
0.0003379028
0.002882615
0.0003180671
0.0003398975
0.0003205818
0.0003395105
0.0003394191
0.002971441
0.002865265
0.002934057
0.002804069
0.002763049
0.002760401
0.002751611
0.002716306
0.002679417
0.0003370175
0.0003346983
0.0003364651
0.000334088
0.0003366126
0.0003348744
0.0003364514
0.0003346962
0.0003206939
0.0003192241
0.0003207566
0.0003192397
0.002649826
0.002738591
0.0003384279
0.0003385771
0.002788321
0.002830249
0.002840962
0.002787545
0.002747692
0.00274314
0.002755287
0.002754014
0.002724235
0.0003404754
0.0003374237
0.0003397271
0.0003364437
0.0003380907
0.0003375775
0.0003229395
0.0003228904
0.002371249
0.002553074
0.002550619
0.002567199
0.002580962
0.002578923
0.00257284
0.002576002
0.002591664
0.002612704
0.002625884
0.002567354
0.000307627
0.0003377485
0.0003361401
0.0003280019
0.0003082497
0.000325993
0.0003252756
0.0003249228
0.0003756659
0.002789222
0.0004489934
0.0003631985
0.0004314226
0.0001481822
0.0003113409
0.0003226891
0.0001721711
0.002284605
0.0001778607
0.003054379
0.0001068075
0.0002531688
0.000156274
0.002395979
0.002715916
0.0003457342
0.0003366423
0.0003285738
0.002627217
0.0003269544
0.0003273189
0.0003255451
0.002747921
0.0003194755
0.0003184726
0.0003299684
0.002643982
0.002700725
0.0003296055
0.0003299288
0.0003297194
0.00277305
0.0003149362
0.0003147599
0.0003306477
0.00265972
0.002680747
0.002726136
0.000330646
0.0003307674
0.0003309243
0.002760245
0.0003155137
0.0003154977
0.0003312509
0.002664107
0.002667007
0.0003312062
0.0003314423
0.002683805
0.002701383
0.0003313445
0.002694914
0.0003164258
0.0003164518
0.0003316796
0.002664626
0.002659293
0.0003314446
0.0003320123
0.0003316436
0.0003322193
0.002655734
0.00265741
0.002654914
0.0003317833
0.002640386
0.0003170489
0.0003170826
0.0003319115
0.00266566
0.002658596
0.0003319532
0.0003323753
0.000332112
0.0003325413
0.002646525
0.0003320209
0.002638819
0.002639374
0.002635602
0.0003338841
0.0003325365
0.0003332479
0.0003318153
0.0003173632
0.0003174013
0.00033191
0.002669201
0.002662815
0.00033212
0.0003326227
0.0003322664
0.0003327941
0.002652978
0.0003321075
0.0003320477
0.0003322505
0.002641017
0.002638127
0.002641701
0.0003328624
0.0003320603
0.0003323648
0.0003314652
0.0003337963
0.0003330275
0.0003336024
0.0003328112
0.0003174518
0.0003175058
0.002678976
0.002667387
0.0003323098
0.000333401
0.0003325253
0.0003336849
0.002669358
0.0003317788
0.0003319438
0.000332021
0.000332202
0.002662993
0.0003173657
0.000317461
0.002649295
0.00264611
0.002652195
0.0003327275
0.0003323391
0.0003326686
0.0003322983
0.0003183887
0.0003179473
0.0003183867
0.0003179504
0.002681932
0.002667502
0.0003332659
0.0003356039
0.0003338376
0.0003364695
0.002687864
0.0003317535
0.0003323652
0.002698628
0.0003172452
0.0003172213
0.002677962
0.002655187
0.002647568
0.0003168447
0.0003168321
0.0003173741
0.0003172451
0.0003174017
0.0003169734
0.0003176117
0.0003174058
0.002631853
0.002670429
0.00269366
0.002724563
0.002725879
0.002685639
0.0003393747
0.0003368913
0.0003335608
0.0003330895
0.0003085894
0.0003314913
0.0003305045
0.0003089345
0.000314901
0.0003150844
0.002662432
0.002678641
0.002685685
0.002710182
0.002748688
0.002724084
0.0003436657
0.0003399018
0.0003381383
0.0003362127
0.0003336501
0.0002718595
0.0002966704
0.002085474
0.002702104
0.002643588
0.002995853
0.002892074
0.0003992118
0.0003556244
0.002466908
0.002548263
0.00253317
0.002629939
0.002546015
0.002591108
0.0003682864
0.0003250437
0.0003769724
0.0003298511
0.002550029
0.002809128
0.0003346098
0.0003354447
0.0003339943
0.0003774962
0.0003343969
0.0003778737
0.0003210879
0.002558901
0.0003178498
0.0003328743
0.002582145
0.0003170007
0.002626865
0.0003172287
0.002549474
0.0002945708
0.0003338751
0.0003343301
0.0002976717
0.0003190989
0.0003256029
0.0002998013
0.0003402909
0.002873245
0.0003430391
0.0003411124
0.0003427634
0.0003401413
0.0003453812
0.0003314324
0.0003295758
0.0003194951
0.0003348182
0.002829657
0.002941045
0.002877065
0.002798929
0.002792053
0.002805178
0.002773494
0.002670382
0.0003358426
0.0003334247
0.0003347846
0.0003322183
0.0003362049
0.0003344433
0.0003357242
0.0003339667
0.0003207612
0.0003192259
0.0003207116
0.0003191726
0.0003381787
0.002690607
0.002721545
0.0003382343
0.0003381964
0.0003376964
0.002702969
0.0003385358
0.0003383838
0.002764207
0.002810232
0.002794492
0.002762752
0.002757766
0.00278312
0.002822967
0.00280809
0.0003396059
0.000335535
0.0003421317
0.0003353719
0.0003366885
0.0003351343
0.0003227645
0.0003224799
0.002373469
0.002560397
0.002544563
0.002548717
0.002565228
0.002573215
0.002572855
0.002578058
0.002598854
0.002635055
0.002677952
0.002907085
0.0003088969
0.0003336815
0.0003314513
0.0003220398
0.0003063425
0.0003134263
0.000324175
0.0003226715
0.0003594187
0.002367195
0.0004274966
0.0003518177
0.0004206803
0.0001678795
0.0003200323
0.0003177266
0.0001645244
0.0002142871
0.0003058253
0.0002611617
0.0003135475
0.003021603
0.002472999
0.002850005
0.0002956516
0.0001656564
0.0003244715
0.002650915
0.0003236908
0.0003215838
0.0003118969
0.002797209
0.0003160996
0.0003095687
0.0003288208
0.002638691
0.00273071
0.0003274284
0.0003288616
0.0003275165
0.00281897
0.0003143873
0.0003136254
0.0003305139
0.002665544
0.002705848
0.002775381
0.000330219
0.0003307552
0.0003306063
0.00282646
0.0003154379
0.0003152958
0.0003313901
0.002674758
0.002690018
0.0003314936
0.0003316806
0.002726543
0.002756068
0.0003314049
0.002753006
0.0003164664
0.0003164559
0.0003318747
0.002675386
0.002677074
0.0003317743
0.0003323488
0.0003320129
0.0003325882
0.002684366
0.0026895
0.002675813
0.0003319702
0.002618284
0.0003171127
0.0003171379
0.0003321289
0.002675856
0.002671202
0.0003322884
0.000332715
0.0003324934
0.0003329189
0.002661199
0.0003322361
0.002650257
0.002639799
0.002613697
0.0003325393
0.0003310059
0.0003312403
0.0003295439
0.0003174378
0.0003174729
0.0003321811
0.002680824
0.002673068
0.0003325168
0.0003330552
0.0003326819
0.0003332322
0.002659447
0.0003323878
0.0003322927
0.0003325037
0.002639437
0.002628963
0.002626609
0.0003320629
0.0003310974
0.0003312664
0.0003301366
0.0003333323
0.0003325076
0.0003328344
0.0003319498
0.0003175514
0.0003175893
0.002695705
0.002678583
0.0003329506
0.0003341533
0.0003331216
0.0003343616
0.002672707
0.0003322367
0.0003324286
0.0003323847
0.000332588
0.002652403
0.0003175337
0.0003175882
0.002632877
0.002631372
0.002647648
0.0003325921
0.0003322211
0.0003323552
0.0003319493
0.0003183646
0.0003179268
0.0003183045
0.0003178597
0.00270254
0.002681031
0.0003347396
0.0003376284
0.0003350425
0.0003380625
0.002689608
0.0003321943
0.0003328514
0.0003324711
0.0003331614
0.00268792
0.0003173877
0.0003173706
0.000317486
0.0003174748
0.00265377
0.00263027
0.002647984
0.0003175918
0.0003175428
0.0003176408
0.0003175216
0.0003177149
0.0003175861
0.0003177391
0.0003176315
0.002630659
0.00267112
0.002697683
0.0003335896
0.002729381
0.0003172173
0.0003174714
0.002708018
0.002640195
0.0003325955
0.0003323058
0.0003313878
0.0003310922
0.0003168187
0.0003309469
0.0003311127
0.0003167219
0.0003172257
0.0003172107
0.002628008
0.002660731
0.002693004
0.002735438
0.002786231
0.002690096
0.0003352778
0.0003341801
0.0003324124
0.0003313471
0.0003313862
0.0003309489
0.0003118552
0.0003156061
0.002627381
0.002668093
0.002682073
0.002705633
0.002764362
0.002857426
0.0003388016
0.0003375686
0.0003350146
0.000332369
0.0003329979
0.0003336133
0.0003114245
0.001724134
0.002722639
0.002531446
0.002587583
0.003094279
0.002748702
0.0001989903
0.003187988
0.0002266565
0.0002817897
0.0002935851
0.002964854
0.00040589
0.0003643609
0.002493525
0.002489283
0.002528585
0.0002849841
0.0003461409
0.002495582
0.002542772
0.00263983
0.002549226
0.002615781
0.0003804964
0.0003330233
0.000381499
0.0003339564
0.0004063308
0.0003673512
0.002555082
0.002821355
0.0003360943
0.0003364958
0.0003346413
0.00037831
0.0003347769
0.0003785056
0.0003217651
0.0003221306
0.002576519
0.0003183166
0.00263556
0.002821947
0.0002980842
0.0003350496
0.0003384055
0.0002959803
0.0003259395
0.0003201382
0.0003172025
0.0003217406
0.0003401383
0.002823324
0.0003405736
0.0003400827
0.000347228
0.0003382709
0.0003479531
0.0003303375
0.0003322549
0.0003350697
0.0003362626
0.0003127992
0.0003263156
0.0003182491
0.0003327084
0.002893621
0.002899688
0.002842791
0.00282273
0.002854531
0.002883017
0.002701245
0.0003334622
0.0003306177
0.0003318343
0.0003281689
0.0003349117
0.0003331868
0.0003335042
0.0003318497
0.000320602
0.0003190704
0.0003203716
0.0003188682
0.0003390569
0.002640055
0.002742774
0.0003396408
0.0003392365
0.000341285
0.0003377463
0.002677877
0.0003368217
0.0003379437
0.0003359288
0.0003180761
0.0003317801
0.002689343
0.0003380559
0.0003369237
0.002753865
0.002776486
0.002766704
0.002767723
0.002803563
0.002879122
0.002973313
0.0003553126